ITEM: TIMESTEP
955860
ITEM: NUMBER OF ATOMS
32191
ITEM: BOX BOUNDS ff ff ff
-0.705 0.705
-0.1016 0.1016
-0.11 0.11
ITEM: ATOMS id x y z radius vx vy vz 
2946112 -0.12271 -0.0105889 0.00705302 0.00045 9.89829 0.716529 -0.542771 
2946175 -0.120727 -0.0105536 0.0069277 0.00035 10.2345 0.809099 -0.535831 
2949221 -0.117478 -0.0103462 0.00683087 0.00035 10.5142 0.819888 -0.714843 
2952373 -0.123653 -0.0113936 0.00933907 0.00025 9.89539 0.751732 -0.837781 
2956118 -0.13767 -0.0123961 0.009847 0.00025 8.36937 0.712523 -0.86222 
2949779 -0.139994 -0.00937565 0.0104966 0.00025 8.1205 0.412603 -0.565995 
2951877 -0.111855 0.001555 0.020068 0.00055 11.0788 -0.16505 -1.85823 
2946572 -0.000358443 0.0715107 -0.109428 0.00025 -0.317221 4.8034 -9.48088 
2944296 -0.000126618 0.077786 -0.107692 0.00025 -0.0941559 5.30638 -8.85595 
2943516 -0.00293661 0.0966013 -0.108558 0.00025 -0.576753 7.51224 -8.84998 
2941485 -0.00330001 0.0729761 -0.107814 0.00025 -0.658579 5.97356 -10.2275 
2944345 -0.000334021 0.0810188 -0.107305 0.00025 -0.191545 5.82333 -8.96989 
2937665 -0.00280164 0.082996 -0.10695 0.00025 -0.596669 6.06802 -8.8843 
2938267 -0.00140229 0.0846261 -0.107213 0.00025 -0.310118 6.92278 -9.51192 
2923533 -0.00027415 0.0840711 -0.107176 0.00025 -0.129367 6.60348 -9.28336 
2935853 -0.00355361 -0.000594253 -0.107712 0.00025 -1.19379 0.710837 -11.3275 
2919402 -0.00335219 0.0690094 -0.107589 0.00025 -0.718056 5.61801 -10.1931 
2932257 -0.00712979 0.0785583 -0.106568 0.00025 -1.28472 6.66624 -9.97819 
2937719 -0.00702113 0.0823651 -0.107221 0.00025 -1.12496 7.04315 -9.91175 
2932534 -0.000707179 0.0840062 -0.106893 0.00025 -0.327499 6.64618 -9.43041 
2938215 -0.00148088 0.0842406 -0.106111 0.00025 -0.552924 6.44555 -9.08621 
2939976 -0.00308832 -0.0207019 -0.107032 0.00025 -1.02971 -2.55088 -11.4415 
2940146 -0.00261636 -0.0171478 -0.106209 0.00025 -0.975342 -1.99543 -11.0924 
2932210 -0.00239995 0.0825994 -0.10518 0.00025 -0.519376 6.99658 -9.65429 
2927375 -0.000632705 0.0820982 -0.10517 0.00035 -0.22699 6.86398 -9.68704 
2949919 -0.00187127 0.083347 -0.104566 0.00025 -0.427685 6.16839 -8.70588 
2944421 -0.001671 0.0843765 -0.104885 0.00025 -0.5537 6.70422 -9.24028 
2933233 -0.00114066 0.0844172 -0.105629 0.00035 -0.344841 6.7688 -9.21674 
2920844 -0.000599747 0.0847237 -0.10561 0.00025 -0.239842 6.64054 -9.18428 
2944025 -0.000688281 0.0854827 -0.105507 0.00025 -0.250167 6.85434 -8.98017 
2941532 -0.00454498 0.0886087 -0.105723 0.00025 -0.747397 7.65085 -9.62521 
2951281 -0.00790672 0.0781882 -0.103817 0.00025 -1.27793 6.50207 -9.53988 
2950991 -0.00180046 0.0878587 -0.104382 0.00025 -0.37343 7.53225 -9.43091 
2935023 -0.00282512 0.087659 -0.10381 0.00025 -0.607429 6.64345 -8.62932 
2944005 -0.00123227 0.0886679 -0.104232 0.00025 -0.259548 7.5312 -9.36631 
2957270 -0.00146795 0.000616386 -0.104079 0.00025 -0.728822 0.814743 -11.0753 
2924373 -0.00248344 0.0856132 -0.102829 0.00035 -0.580152 7.42676 -9.33912 
2931388 -0.00570514 0.0886251 -0.101945 0.00025 -0.971235 6.73679 -8.45753 
2943476 -0.00229552 0.0905901 -0.103238 0.00025 -0.418825 7.72206 -9.2408 
2941394 -0.00121658 0.0905082 -0.103023 0.00025 -0.264518 7.59645 -9.14648 
2934836 -0.000647838 -0.0975467 -0.101111 0.00025 -0.728962 -6.80556 -8.35254 
2945173 -0.00149166 -0.021906 -0.103031 0.00025 -0.733319 -2.84132 -10.9042 
2952491 -0.00186108 -0.0166229 -0.103592 0.00025 -0.946351 -1.8093 -11.3791 
2945237 -0.0054177 0.0634588 -0.102739 0.00025 -1.33702 4.93587 -9.72289 
2943073 -0.00973945 0.0866382 -0.101426 0.00025 -1.54971 7.53317 -9.27693 
2931977 -0.0104576 0.0897574 -0.101539 0.00025 -1.64341 7.90927 -9.24587 
2934767 -0.00724726 0.0923926 -0.101254 0.00025 -1.15155 8.1337 -9.17149 
2926194 -0.000573787 0.0917628 -0.102048 0.00025 -0.169637 7.72376 -8.9556 
2938188 -0.00087176 0.091961 -0.101491 0.00025 -0.330733 7.70085 -8.95364 
2938108 -0.00610792 0.0760889 -0.101109 0.00025 -1.07346 6.30447 -9.29473 
2950864 -0.00331003 -0.0143137 -0.10039 0.00025 -1.09301 -1.50148 -10.469 
2942646 -0.0063932 0.0738786 -0.099523 0.00025 -1.13262 6.17996 -9.25521 
2944552 -0.005721 0.0816742 -0.0996331 0.00025 -1.08797 7.10989 -9.18922 
2931880 -0.00100568 0.0892163 -0.0997065 0.00025 -0.433732 7.12906 -8.67095 
2933956 -0.000684572 0.0955203 -0.0990333 0.00025 -0.194009 8.25727 -8.75827 
2947800 -0.00181405 -0.0134228 -0.0996848 0.00025 -0.73813 -1.38834 -10.38 
2951657 -0.00154359 -0.0107887 -0.0993482 0.00025 -0.713442 -0.854458 -10.4089 
2939020 -0.00632563 0.0796232 -0.098731 0.00035 -1.23746 6.88041 -9.09663 
2941367 -0.00133477 0.0806533 -0.0988815 0.00025 -0.476418 6.82748 -9.04599 
2934539 -0.000987742 0.0864274 -0.0980555 0.00035 -0.388417 7.54527 -8.95724 
2951340 -0.00732149 0.0873736 -0.0982701 0.00025 -1.2777 7.67058 -8.95919 
2944095 -0.000809721 0.0876419 -0.0975172 0.00025 -0.389919 7.26949 -8.45592 
2940549 -0.00650178 0.0893515 -0.0986117 0.00025 -1.08234 7.83087 -8.97279 
2925491 -0.00163241 -0.0238445 -0.0988121 0.00025 -0.576887 -2.9042 -10.8343 
2946604 -0.00580831 0.0769275 -0.097523 0.00025 -1.15446 6.43469 -8.997 
2927350 -0.00126018 0.0804772 -0.0977027 0.00035 -0.568902 7.14279 -9.14416 
2942802 -0.00801267 0.0878861 -0.0968015 0.00025 -1.3527 7.69769 -8.8351 
2953709 -0.0013661 -0.015807 -0.0972712 0.00025 -0.651945 -1.71995 -9.98036 
2932363 -0.000469178 -0.0130727 -0.0968981 0.00025 -0.380592 -1.21956 -10.1615 
2918506 -0.00517168 0.0860761 -0.0957888 0.00035 -1.10464 7.73591 -8.8869 
2943468 -0.0136543 0.0880863 -0.0959661 0.00025 -2.16471 7.8272 -8.82962 
2929286 -0.0055137 0.097485 -0.0961069 0.00025 -0.915648 8.64271 -8.58081 
2912656 -0.00275719 -0.0975977 -0.0940454 0.00045 -0.132262 -8.65014 -8.48495 
2921604 -0.00444848 0.0866224 -0.0931346 0.00035 -0.959763 7.83301 -8.70802 
2946961 -0.00407014 0.0990726 -0.0935035 0.00025 -0.735044 8.83997 -8.28637 
2938969 -0.00195758 0.00860981 -0.0956075 0.00035 -0.0377842 1.3066 -12.3742 
2925845 -0.00182041 0.0838305 -0.0919223 0.00035 -0.643646 7.48572 -8.46071 
2933036 -0.00533779 0.00934409 -0.0950009 0.00045 -0.636436 1.30184 -12.2701 
2924266 -0.00391224 0.0103976 -0.0940671 0.00045 -0.311585 1.42292 -12.2588 
2942092 -0.00300032 0.0729869 -0.0909036 0.00025 -0.689229 6.08246 -8.21716 
2923070 -0.00651893 0.088861 -0.0915108 0.00035 -1.33714 8.06434 -8.49411 
2945850 -0.0129733 0.090631 -0.0915461 0.00025 -2.02807 8.05059 -8.22533 
2943139 -0.00833101 0.0981911 -0.0906228 0.00025 -1.41967 8.92518 -8.06652 
2950505 -0.00109941 0.00896763 -0.0930736 0.00035 0.192245 1.36767 -12.2281 
2930126 -0.00225437 0.0135891 -0.0928465 0.00045 -0.0689066 1.84362 -12.1947 
2925964 -0.00796929 0.09216 -0.0901591 0.00035 -1.47333 8.03178 -7.94263 
2921362 -0.0061143 -0.00144501 -0.0922634 0.00045 -0.920981 -0.0533761 -12.083 
2921381 -0.00206108 0.00717197 -0.0921163 0.00045 -0.0204771 1.02014 -12.2387 
2930117 -0.0051671 0.0235081 -0.0915589 0.00045 -0.716517 2.9914 -11.9105 
2941734 -0.00117038 0.00647523 -0.0909977 0.00045 0.176935 1.09138 -12.2604 
2930290 -0.00178769 0.0852802 -0.0879385 0.00035 -0.632773 7.71974 -8.09007 
2927506 -0.00871286 0.0945067 -0.0868917 0.00025 -1.45496 8.53145 -7.61732 
2924287 -0.000828467 -0.0116458 -0.0899714 0.00045 -0.0136695 -1.56916 -12.3058 
2935883 -0.00593204 0.000262466 -0.0902233 0.00055 -0.72626 0.180278 -12.0025 
2925855 -0.00143249 0.100686 -0.0865075 0.00035 -0.445268 9.21889 -7.5499 
2959045 -0.000856354 -0.0183788 -0.0881725 0.00025 -0.04675 -2.56455 -11.6455 
2944674 -0.00170892 0.0222926 -0.0884614 0.00035 0.0517939 2.84982 -11.5921 
2941995 -0.00176521 0.0722739 -0.0858305 0.00025 -0.559551 6.25313 -8.18107 
2948012 -0.0069533 0.0851862 -0.0856038 0.00025 -1.33088 7.74872 -7.84897 
2949924 -0.0126499 0.0918601 -0.0851278 0.00025 -2.06864 8.24325 -7.5292 
2943163 -0.110662 -0.0014882 0.0197702 0.00045 10.8352 -0.331881 -2.01853 
2941814 -0.00160026 0.028164 -0.0871556 0.00035 0.0216154 3.67362 -11.6033 
2915525 -0.00660092 0.000326685 -0.0853747 0.00055 -0.834928 0.185821 -11.5213 
2936996 -0.00225768 0.0832765 -0.0813069 0.00025 -0.693156 7.64391 -7.47321 
2921358 -0.00146411 0.0308295 -0.0836157 0.00045 0.118723 4.07217 -11.1835 
2927394 -0.000448456 0.0851253 -0.0811115 0.00035 -0.444718 8.12358 -7.64627 
2931519 -0.000251291 0.0316741 -0.0813686 0.00055 0.276023 4.43075 -11.099 
2948422 -0.00173755 0.0867067 -0.0781668 0.00025 -0.525435 8.1513 -6.97988 
2932136 -0.00370745 0.0895302 -0.0762127 0.00025 -0.93761 8.43794 -6.72998 
2948023 -0.00127273 0.0621774 -0.0773158 0.00025 -0.850981 6.23112 -8.74776 
2919897 -0.0024785 0.0694198 -0.0786177 0.00045 -0.306453 8.53798 -9.96075 
2949653 -0.000369581 0.0709283 -0.0749708 0.00025 -0.300817 7.34223 -8.04404 
2944884 -0.000987167 0.0676228 -0.0741217 0.00025 -0.704526 7.22546 -8.34363 
2944271 -0.00125488 0.0694054 -0.074734 0.00025 -0.525541 7.18036 -7.95999 
2941968 -0.00102659 0.0706344 -0.075104 0.00035 -0.0365046 8.71783 -9.49516 
2951528 -0.000817411 -0.0104877 -0.0753256 0.00025 -0.9481 -1.27526 -10.161 
2939013 -0.000547065 0.07162 -0.0745091 0.00035 0.0544091 8.97227 -9.60273 
2935978 -9.34969e-05 0.0665171 -0.0733604 0.00035 -0.0491742 8.00408 -8.95257 
2942609 -0.000791218 0.0704382 -0.0725629 0.00025 -0.647407 7.8118 -8.1716 
2959209 -0.00193984 0.0601662 -0.0716581 0.00045 -0.17478 7.73587 -9.47199 
2921345 -0.00859083 0.064487 -0.071912 0.00055 -1.32747 8.23226 -9.42098 
2953366 -0.00447989 0.0626925 -0.0709377 0.00045 -0.559832 8.14678 -9.37523 
2948075 -0.000167044 0.0621108 -0.0707206 0.00025 0.278788 7.94918 -9.24041 
2950688 -0.00164874 0.063171 -0.069984 0.00035 -0.116809 7.89836 -9.05469 
2933033 -0.00603192 0.0664513 -0.0694616 0.00045 -0.944884 8.50471 -9.08451 
2921377 -0.000328776 0.075338 -0.0688289 0.00045 0.0263222 9.16167 -8.41495 
2934422 -0.00302146 0.0645961 -0.0688819 0.00055 -0.336147 8.46554 -9.28993 
2937376 -0.00286391 0.0737711 -0.06862 0.00045 -0.384515 9.5124 -8.90187 
2943690 -0.00215985 -0.0909997 -0.0652882 0.00025 -1.73731 -9.19824 -6.31045 
2930897 -0.00216139 0.0960683 -0.0644587 0.00025 -1.72174 7.71537 -6.60038 
2921376 -0.0021614 0.0684266 -0.0639522 0.00045 -0.221248 8.96436 -8.4836 
2939567 -0.00133021 0.0936667 -0.0619818 0.00025 -1.35333 7.01396 -5.99784 
2947247 -0.00192958 0.0601216 -0.0610709 0.00025 -0.768782 8.03571 -8.03207 
2922787 -0.0014837 0.0658995 -0.0610824 0.00055 -0.181721 9.02144 -8.41468 
2939492 -0.000285335 0.0664893 -0.0597242 0.00025 -0.293558 9.42165 -7.96858 
2922014 -0.00197926 0.0528927 -0.0581566 0.00025 -1.37933 7.06278 -8.58133 
2932965 -0.000207765 0.0820314 -0.0529042 0.00055 0.715203 10.1571 -6.5727 
2915520 -0.00209816 0.0880943 -0.0529414 0.00055 -0.0719643 10.5529 -6.41718 
2927818 -0.00139558 0.0528458 -0.0521975 0.00025 -1.11986 7.17476 -7.17905 
2924407 -0.000107993 0.0278721 -0.0504847 0.00035 0.856969 5.80898 -11.1244 
2932981 -0.00112958 0.003233 -0.0496834 0.00055 -0.183677 1.00274 -12.5206 
2946864 -0.00210113 0.0473665 -0.0442919 0.00025 -2.20846 8.3506 -7.49863 
2945153 -0.000230563 -0.101404 -0.0352419 0.00025 0.247759 -10.9112 -4.06697 
2935878 -0.000387539 0.0338553 -0.0386865 0.00055 -0.148188 7.93217 -9.38251 
2925648 -0.000165293 0.0747801 -0.0346623 0.00025 0.600629 10.8662 -4.61727 
2947529 -6.41792e-06 0.0374545 -0.0378384 0.00045 0.237515 8.53235 -9.11368 
2945578 -0.000494703 0.0712821 -0.0331477 0.00025 -0.210633 10.1869 -4.53046 
2956231 -0.000177179 0.0344028 -0.0321856 0.00055 0.0391657 8.91187 -8.57369 
2952006 -4.32816e-05 0.0451217 -0.0288117 0.00035 0.231062 10.1774 -6.61576 
2957174 -0.000186112 0.0740804 -0.0256724 0.00025 0.219953 11.0534 -3.46752 
2918447 -0.00103081 -0.0477483 -0.0265647 0.00045 0.119743 -10.4325 -6.11502 
2950580 -0.000271255 0.0470712 -0.0262313 0.00035 0.47711 10.6229 -6.11847 
2918437 -0.000511544 0.0214169 -0.0272207 0.00055 -0.380431 7.61357 -10.155 
2938479 -0.00194785 -0.074269 -0.0177361 0.00025 -2.06516 -10.9275 -3.18527 
2961030 -1.69145e-05 0.0389466 -0.0208687 0.00025 0.313352 10.6454 -5.99979 
2938798 -0.00179162 -0.0856509 -0.016519 0.00045 -0.134895 -11.5179 -2.3101 
2933906 -0.00131257 -0.068263 -0.0170109 0.00025 -1.41149 -9.45063 -3.21832 
2924261 -0.000123899 -0.0411736 -0.0186141 0.00045 0.190655 -11.025 -5.52998 
2937661 -0.000198113 0.0192611 -0.0226048 0.00025 0.0536893 7.42172 -9.89398 
2956189 -0.00151438 -0.068167 -0.0164886 0.00025 -1.37218 -9.1807 -3.16908 
2933230 -0.000249607 0.020943 -0.0213018 0.00035 -0.0253319 8.89949 -9.74133 
2951903 -0.00126747 0.0509191 -0.0170039 0.00045 0.270646 10.856 -3.87555 
2954821 -0.00050053 0.0509255 -0.0154193 0.00045 0.610125 11.2968 -3.40783 
2924258 -9.02065e-05 0.0564229 -0.0145262 0.00045 0.412158 11.2946 -2.75234 
2943199 -0.000796963 0.0574238 -0.0149149 0.00045 0.484251 11.4235 -3.08721 
2923897 -0.00159743 -0.0723205 -0.0131412 0.00025 -1.57941 -10.2315 -2.30453 
2940300 -9.21956e-05 -0.0530852 -0.0141144 0.00045 0.668674 -11.7482 -3.4693 
2944648 -0.000383065 0.0258879 -0.0180019 0.00045 -0.127889 10.6725 -7.44803 
2967464 -0.00177728 -0.0762665 -0.0124311 0.00025 -1.72084 -11.4019 -2.26155 
2968388 -0.000139248 -0.0278941 -0.0152764 0.00025 0.105302 -10.2757 -6.22789 
2952067 -0.112251 0.0105166 0.00953203 0.00035 10.9572 -0.891706 -1.08298 
2943160 -0.111088 0.0100582 0.00915425 0.00045 11.2734 -0.804487 -1.12628 
2942762 -0.000904381 0.0586908 0.0950319 0.00025 -1.07809 5.7539 8.53491 
2950528 -9.80949e-05 0.051805 -0.0124438 0.00035 1.16826 11.2381 -2.7956 
2944653 -0.00085204 0.0532763 -0.0129236 0.00045 0.503381 11.3169 -2.88043 
2935924 -0.000140524 -0.0497492 -0.0108369 0.00045 0.277542 -11.589 -2.78413 
2934463 -0.10911 0.0100954 0.0107752 0.00045 11.6617 -0.923187 -1.04398 
2947243 -0.0010701 -0.00230295 -0.0123343 0.00025 9.01686 -1.14429 -8.1937 
2929756 -0.000949072 -0.000894199 -0.0123999 0.00025 9.04221 -0.944165 -8.24821 
2958099 -0.000383482 0.000405472 -0.01262 0.00025 8.24231 0.871356 -8.5439 
2934689 -0.000389747 0.00125453 -0.0123877 0.00035 8.51816 0.980484 -8.46263 
2935035 -0.000189578 0.0648396 0.100505 0.00025 -0.326396 5.84438 7.56136 
2940369 -0.000240236 -0.0223475 0.0959877 0.00035 -0.249826 -2.83438 9.71129 
2923283 -0.000868354 -0.0225581 0.0921249 0.00025 -0.418925 -3.08486 9.57548 
2931106 -0.000343468 0.0390943 0.0924518 0.00025 -0.542106 3.86683 9.33651 
2949914 -9.28164e-05 0.000282546 0.0922322 0.00025 0.39728 -1.06649 9.81088 
2940455 -0.109331 -0.0101025 0.00769725 0.00035 11.5284 0.861295 -0.868632 
2937328 -0.109382 0.0101057 0.00974907 0.00055 11.404 -0.926011 -0.997797 
2953617 -0.000650396 -0.0238894 0.0887238 0.00025 -0.983033 -2.64007 10.3469 
2931161 -0.000115708 0.0882854 0.0815003 0.00025 -0.196842 7.35378 5.69467 
2940728 -0.000135719 0.0480545 0.0795079 0.00025 -0.00384743 6.31442 7.88962 
2951793 -0.000896655 -0.0456861 0.0833693 0.00025 -0.943962 -6.8298 8.46964 
2920248 -0.000426552 0.0219154 -0.0139931 0.00025 -0.134775 9.43681 -6.49626 
2959862 -4.5139e-05 0.0516769 -0.0107058 0.00025 0.658911 10.7873 -2.5784 
2942644 -0.000335387 -0.0374314 0.0745807 0.00025 -0.895234 -5.91979 8.87364 
2937335 -0.108681 -7.17614e-05 -0.000122887 0.00055 11.8484 0.209955 -0.448201 
2946135 -0.108851 -0.000916641 -0.000666712 0.00035 11.7426 0.0166214 -0.0693623 
2947467 -0.111258 -0.00999163 0.00667877 0.00025 11.7732 0.79446 -0.514258 
2934418 -0.113443 -0.0104012 0.00941475 0.00055 10.6116 0.81051 -0.79187 
2954567 -8.20263e-05 -0.0198151 0.0743256 0.00025 0.624771 -3.17372 9.43377 
2956718 -0.000332317 -0.0160645 0.0715178 0.00025 -0.290912 -3.55506 9.42222 
2949693 -0.00725584 -0.0021722 -0.00879839 0.00025 15.5423 -0.0297487 -2.63471 
2954390 -0.000280919 -0.0116815 0.066879 0.00025 -0.2983 -2.5244 9.84815 
2935127 -0.0065064 0.000144435 -0.00896777 0.00025 15.084 0.11199 -2.58839 
2919896 -0.00118884 0.00114655 -0.0110453 0.00045 9.86247 0.828591 -7.09809 
2940553 -0.000663449 0.000609664 -0.0121521 0.00025 8.17846 0.930171 -8.18345 
2952332 -0.000333208 0.000737264 -0.0116428 0.00025 8.7317 0.466598 -8.37988 
2947399 -2.00284e-05 0.00109519 -0.0119137 0.00025 8.47046 0.813989 -8.35252 
2940267 2.79085e-05 0.00115574 -0.0107804 0.00045 9.05927 0.7435 -7.52918 
2925540 -0.000835643 0.058036 0.0941841 0.00025 -1.08998 5.40772 8.63548 
2920000 -0.00148853 0.00195253 -0.0108439 0.00035 8.78488 1.08871 -7.05907 
2946164 -0.000447297 0.00184147 -0.0109757 0.00035 9.49716 0.725674 -7.94219 
2939780 -0.000336686 0.0773024 0.0621971 0.00025 -0.05885 6.90054 5.44434 
2969983 -0.00038226 -0.00774676 0.0449419 0.00025 -0.326887 -2.0919 10.8416 
2924410 -0.000603562 0.0492835 -0.0103296 0.00035 0.770583 11.2013 -3.00308 
2957607 -9.2427e-05 0.0489027 -0.0104585 0.00025 1.1746 10.7573 -2.78387 
2920045 -0.000379636 -0.0522517 -0.00796787 0.00035 0.706579 -11.8897 -2.28055 
2949864 -0.000166957 -0.0911129 0.0381836 0.00025 0.0651518 -9.204 4.196 
2950474 -0.00131959 -0.0472654 -0.00893545 0.00045 -0.264491 -11.8989 -2.43147 
2960468 -0.000253192 -0.0445883 -0.00827002 0.00025 0.689543 -11.5783 -2.41221 
2922799 -0.000451274 -0.042221 -0.00940525 0.00055 -0.140301 -11.9056 -2.84278 
2940234 -0.10995 0.00989415 0.00883653 0.00055 11.3702 -1.12026 -0.978057 
2952239 -0.00762722 -0.00279516 -0.00892084 0.00025 16.0863 -0.117231 -2.43093 
2950216 -0.00242472 -0.00380984 -0.00903731 0.00025 10.8139 -2.51419 -6.06698 
2920819 -0.000277357 -0.0165234 0.0386053 0.00025 -0.085219 -4.69014 10.2161 
2952920 -0.00754082 -0.00197752 -0.00840871 0.00025 15.5011 -0.393869 -3.47532 
2949262 -0.000205776 -0.0237739 0.0945483 0.00025 0.420148 -2.9889 8.77101 
2947088 -0.000419928 -0.00050667 -0.0105969 0.00025 8.45781 -0.83155 -7.77559 
2935404 -0.000830196 0.000970662 -0.0104794 0.00025 9.75799 0.794013 -7.07554 
2928813 -0.00685002 0.00123317 -0.00845852 0.00035 15.3337 0.324918 -2.809 
2955046 -0.000674381 0.00251131 -0.00980901 0.00035 9.54094 0.829289 -6.78393 
2951944 7.23645e-05 0.00227855 -0.0109139 0.00035 8.66771 1.2493 -8.26446 
2940891 -0.000414842 -0.0178022 0.0934594 0.00025 -0.250672 -2.55522 10.1113 
2938553 -0.000186964 0.0189117 0.089531 0.00025 -0.232598 2.75414 10.3052 
2950554 -0.000253421 0.048206 -0.00946654 0.00035 0.489387 11.3452 -2.71374 
2936049 -0.000733073 0.048583 -0.00912726 0.00035 0.693019 11.4565 -2.55275 
2952334 -0.109856 -0.00799532 0.0053417 0.00025 11.7014 0.798237 -0.64384 
2938950 -0.000645908 -0.0202126 0.0838791 0.00035 -1.01769 -3.09945 10.4528 
2939723 -0.000626202 -0.0445541 0.0760618 0.00025 -0.692136 -5.61114 9.04008 
2927403 -9.75126e-05 -0.0508581 -0.00765118 0.00035 1.00838 -11.7708 -2.31283 
2962494 2.33584e-05 -0.0475805 -0.00769476 0.00025 1.37041 -11.9869 -2.31699 
2940021 -0.000749853 -0.0424366 0.0739532 0.00025 -0.926751 -5.63556 8.83834 
2955092 2.06398e-06 -0.0445035 -0.00661013 0.00025 0.453543 -11.6408 -1.79669 
2970094 -0.000137361 -0.039871 -0.00691959 0.00025 -0.0553077 -10.9916 -2.26717 
2972187 -0.000114658 -0.0407099 -0.00815085 0.00025 0.109676 -11.2592 -2.63937 
2933640 -0.000180433 -0.0394724 -0.00761521 0.00025 0.487618 -11.0847 -2.47413 
2935668 -0.000207657 -0.0262911 -0.00874085 0.00025 0.32622 -10.5274 -4.2395 
2964250 -0.000174736 0.0333038 0.029978 0.00025 0.00891142 8.58024 7.38765 
2933659 -0.000431806 0.0358431 0.0251903 0.00025 0.0951533 9.60576 6.68644 
2931238 -0.000655926 -0.0419986 0.0724182 0.00025 -0.671091 -5.38173 8.9179 
2941110 -0.0206553 -0.00241841 -0.00749173 0.00025 16.3474 0.312116 -1.65896 
2931511 -0.0203456 -0.00251875 -0.00676289 0.00055 16.341 0.10721 -1.7185 
2956033 -0.0177232 -0.00305424 -0.00621078 0.00025 16.6155 -0.0700138 -1.32267 
2952297 -0.0202799 -0.00150947 -0.00699953 0.00025 16.5996 0.0814699 -1.82748 
2952338 -0.019283 -0.00201331 -0.00745073 0.00025 16.7082 -0.00550373 -2.22667 
2952984 -0.0189876 -0.00157305 -0.00689405 0.00025 16.7944 -0.00118865 -2.01269 
2941498 -0.0187244 -0.0011664 -0.00706213 0.00025 16.8556 0.0944589 -1.79079 
2920633 -0.0147515 -0.00190313 -0.00769673 0.00025 16.6829 -0.0533989 -2.54558 
2934541 -0.0141109 -0.00170558 -0.00785074 0.00035 16.6485 -0.157667 -3.06011 
2928882 -0.00302749 -0.00260087 -0.00800578 0.00035 12.7083 -0.990569 -4.62334 
2925839 -0.00252935 -0.00278647 -0.00755784 0.00035 12.4178 -1.64016 -4.86026 
2951919 -0.001086 -0.00206486 -0.00880957 0.00045 11.179 -0.913902 -6.52843 
2925748 -0.021593 -0.000676001 -0.00692378 0.00045 16.4038 0.0452064 -1.39216 
2925707 -0.00968395 -0.00073459 -0.00585361 0.00055 16.053 -0.0725353 -1.39082 
2925753 -0.00589733 -0.00086267 -0.0072588 0.00045 15.1009 -0.30193 -3.04622 
2929326 -0.0040309 -0.000390685 -0.00632669 0.00025 12.957 -0.628747 -3.32339 
2931746 -0.00141908 -0.00113147 -0.00880817 0.00035 10.8218 -0.854228 -6.46733 
2936995 -2.01443e-05 -0.0624058 0.102011 0.00025 -0.0300101 -6.09147 8.41404 
2945999 -0.000532344 0.0615103 0.0991258 0.00025 -0.885921 5.31 7.97173 
2955774 -0.0256634 0.000915539 -0.00652514 0.00025 16.4985 0.118529 -1.88541 
2948076 -0.000673348 0.0270172 0.0244833 0.00025 -0.60503 8.63611 7.48597 
2950364 -0.0325381 0.00137479 -0.00648149 0.00025 16.5429 -0.0262649 -1.21702 
2928820 -0.0181019 0.00159494 -0.00698296 0.00035 16.8453 0.37863 -1.48614 
2937399 -0.00867247 0.00132272 -0.00746589 0.00045 15.7306 0.285048 -2.64135 
2925771 -0.00057282 0.0144174 0.0146873 0.00035 -0.546142 8.02582 7.59137 
2949454 -0.000930262 0.00425657 0.0277663 0.00025 -0.672276 2.18783 11.6694 
2930054 -5.74373e-05 0.0113434 0.0635321 0.00055 -0.0652419 1.96735 10.8419 
2951306 -0.000392389 0.0272623 0.0225951 0.00025 -0.320533 9.15158 7.26401 
2946208 -0.11334 -0.00967577 0.00565197 0.00035 11.1189 0.77196 -0.53132 
2920644 -0.000261031 0.0213681 0.100207 0.00025 -0.388969 2.33764 9.79556 
2948018 -0.000579286 -0.0840245 0.055727 0.00025 -0.658918 -8.55825 4.02191 
2921401 -0.00175474 0.0478966 -0.00718437 0.00045 0.413487 10.9656 -2.13786 
2923340 -0.000171916 0.0780804 0.108513 0.00025 -0.227796 5.499 8.43705 
2956307 -0.000198503 -0.0467021 -0.00634623 0.00035 0.403565 -11.9167 -1.90143 
2932967 -0.000289176 -0.0458147 -0.00633047 0.00055 -0.111807 -11.9925 -1.85885 
2965176 -2.4264e-05 -0.0438399 -0.00613407 0.00035 0.326337 -11.5499 -1.96793 
2919131 -0.000130701 -0.0413231 -0.00647087 0.00025 0.121004 -11.8002 -2.17163 
2940243 -0.112828 -0.00914012 0.00514373 0.00055 11.0205 0.716107 -0.70302 
2927682 -0.000417409 0.0314308 0.0267878 0.00025 -0.450611 8.8636 7.35123 
2927207 -0.00133155 -0.00964957 0.0221973 0.00045 -1.69898 -4.61711 9.46862 
2921917 -0.000637646 0.0586491 0.0944768 0.00025 -0.964837 5.56461 8.46544 
2956049 -0.000535122 0.00451645 0.0219926 0.00025 -1.26045 2.2278 11.12 
2959125 -0.014642 -0.00593511 -0.00586632 0.00025 16.649 -0.82862 -2.28832 
2933762 -0.000733558 0.0579044 0.0937014 0.00025 -1.1081 5.38601 8.59866 
2918841 -0.00084845 0.0578675 0.0924603 0.00025 -1.28989 5.26215 8.48471 
2945420 -0.000162486 0.0504227 0.0457413 0.00025 -0.0955139 8.01461 6.92914 
2935056 -0.0179455 -0.00383167 -0.00612939 0.00025 16.6335 0.00289367 -1.4484 
2931590 -0.0150191 -0.0043578 -0.00662544 0.00035 16.6029 -0.0325322 -2.57651 
2952352 -0.0180996 -0.00285545 -0.00590862 0.00025 16.59 -0.154827 -1.46605 
2958318 -0.018937 -0.00301642 -0.00542319 0.00025 16.7249 -0.0668846 -1.63777 
2934531 -0.0176488 -0.00258338 -0.00551089 0.00035 16.4966 -0.0627892 -1.25329 
2947494 -0.017225 -0.00261388 -0.00508772 0.00025 16.6147 -0.0618154 -1.35905 
2944343 -0.0159145 -0.00287782 -0.00509126 0.00025 16.6375 0.234279 -1.38211 
2956110 -0.0109794 -0.0021637 -0.00495502 0.00025 16.5268 0.25241 -0.522123 
2944273 -0.00706873 -0.00414452 -0.00644107 0.00025 15.6082 -1.2666 -3.57955 
2949179 -0.0271723 -0.00169126 -0.00533066 0.00035 16.4198 -0.0466966 -1.6847 
2949576 -0.0221902 -0.00194944 -0.00546591 0.00025 16.6688 0.0954496 -1.5948 
2943896 -0.0197333 -0.00185008 -0.00651745 0.00025 16.686 0.0753164 -2.04759 
2934889 -0.0184255 -0.00180456 -0.00572276 0.00025 16.7109 -0.0228231 -1.55502 
2925887 -0.0180259 -0.00160208 -0.00528055 0.00035 16.6427 0.00236057 -1.36295 
2952448 -0.0173548 -0.00180403 -0.00525649 0.00025 16.6184 0.0782899 -1.02343 
2952512 -0.0084399 -0.00145958 -0.00660091 0.00025 15.6181 -0.140648 -3.00594 
2950044 -0.00456827 -0.00145862 -0.0048602 0.00025 13.1692 -0.501198 -1.81974 
2922829 -0.00434847 -0.00163231 -0.00549905 0.00045 13.6922 -0.610598 -1.65087 
2917166 -0.00383699 -0.00222174 -0.00573532 0.00035 12.6749 -0.59559 -2.30252 
2935400 -0.000401158 0.0258653 0.0161518 0.00025 -0.465443 10.3483 6.26668 
2929399 -0.000262258 0.0627549 0.0995595 0.00025 -0.505181 5.19569 7.37476 
2956188 -0.0380732 -0.000186018 -0.00531819 0.00025 16.6575 -0.14482 -1.56023 
2943347 -0.0334959 -0.000270712 -0.005511 0.00035 16.5919 -0.018571 -1.26537 
2949428 -0.031548 -0.000369482 -0.00519255 0.00025 16.6773 -0.243637 -1.58216 
2937358 -0.0284642 -0.000691616 -0.00534618 0.00045 16.482 0.240651 -0.942767 
2956100 -0.0256991 -0.000914003 -0.00517981 0.00025 16.3906 -0.0172784 -1.39778 
2950280 -0.0207405 -0.000787502 -0.00635193 0.00025 16.9185 0.178987 -2.06185 
2925694 -0.0194656 -0.000845056 -0.00614666 0.00055 16.4987 0.0203059 -1.94986 
2944465 -0.013642 -0.000771054 -0.00653499 0.00025 17.1575 -0.118186 -3.28995 
2935027 -0.00245321 -0.00111093 -0.00765437 0.00025 11.5027 -0.628042 -5.93892 
2946312 -0.000579296 -0.015436 0.0906384 0.00035 -0.685538 -1.98659 10.2917 
2940413 -0.0335025 0.000899186 -0.0055002 0.00035 16.5284 -0.108125 -1.57188 
2946965 -0.0320652 0.00110233 -0.00655465 0.00025 16.8271 0.0934502 -2.00486 
2944009 -0.028027 -8.36597e-05 -0.00596379 0.00025 16.7176 -0.115589 -1.24286 
2952933 -0.028354 0.000475024 -0.00514122 0.00025 16.4208 0.0906952 -1.09359 
2935046 -0.0279347 0.000314553 -0.00627687 0.00025 16.6367 -0.295403 -1.65526 
2947062 -0.0275144 -6.23928e-07 -0.00633446 0.00025 16.6828 -0.0951551 -1.68963 
2922840 -0.0276095 0.000622823 -0.00574078 0.00045 16.5298 -0.0898871 -1.76476 
2958886 -0.0261493 0.00104061 -0.00529366 0.00025 16.6961 0.202681 -1.84292 
2928779 -0.00854595 0.000710411 -0.00627678 0.00035 15.8621 0.313822 -2.6598 
2938691 -0.00710723 0.00112165 -0.00635116 0.00025 15.5371 0.534367 -3.24247 
2919899 -0.00552708 0.000482612 -0.00631115 0.00045 14.8631 0.00869363 -3.23989 
2955706 -0.000356076 0.0208608 0.0114591 0.00025 -0.228363 10.4016 5.50881 
2950836 -0.00065171 -0.0228974 0.0887207 0.00025 -0.871892 -2.82874 9.98394 
2930728 -0.000121598 -0.0612197 0.0984401 0.00025 -0.197496 -5.7412 8.33339 
2938268 -0.000381818 0.0615065 0.0965401 0.00025 -0.470393 5.18619 8.70812 
2957220 -0.00084699 -0.0200087 0.0857631 0.00025 -1.15007 -2.96875 10.3064 
2942147 -0.00070119 0.0568476 0.0922277 0.00025 -1.14122 5.59504 8.40285 
2937654 -0.000453565 0.0797581 0.0861239 0.00025 -0.721751 5.78333 5.95915 
2933873 -0.000429752 0.0611228 0.0939262 0.00025 -0.574344 4.56724 8.38389 
2954016 -0.000809363 0.0572414 0.0932448 0.00025 -1.0661 5.49967 8.37308 
2963284 -0.000428684 0.0484578 0.0415845 0.00025 -0.323809 7.87253 7.04305 
2961185 -0.000395655 -0.0097507 0.0449699 0.00025 -0.360816 -2.47614 10.6831 
2950131 -0.00015001 0.0233919 0.00644428 0.00025 0.120413 11.4678 2.42205 
2944251 -0.000820913 -0.0203698 0.0867891 0.00025 -1.06742 -2.84144 10.5201 
2937050 -0.000770051 -0.0188089 0.0829232 0.00025 -1.16135 -2.79851 10.4224 
2936823 -0.00022641 -0.0140654 0.0951134 0.00025 -0.249241 -2.15593 9.77452 
2927723 -0.000104669 0.0193324 0.0410844 0.00025 0.638946 5.1311 9.572 
2943767 -0.000816742 0.0589493 0.0940924 0.00025 -1.0646 5.42509 8.69391 
2954080 -0.000296994 -0.0107402 0.0479491 0.00025 0.114578 -2.31446 10.4643 
2952057 -0.0275811 0.00410619 -0.00593054 0.00035 16.4831 -0.105794 -2.06003 
2946367 -0.0211011 0.00385346 -0.00564071 0.00025 16.5815 -0.102936 -1.85032 
2955685 -0.00848248 0.0033593 -0.00656478 0.00025 15.7176 0.344582 -2.63344 
2938775 -0.00058856 -0.0225783 0.0877309 0.00025 -0.826064 -3.02309 10.0732 
2943794 -0.000641518 0.0564162 0.09198 0.00025 -0.805688 5.74054 8.1424 
2920924 -0.00101602 0.057379 0.0908575 0.00025 -1.37007 5.73273 7.8646 
2937324 -0.000919294 0.0556988 0.0900439 0.00025 -1.3332 5.33035 8.37454 
2934241 -0.000430498 0.0241167 0.0398508 0.00025 -0.348613 6.04889 9.21133 
2949518 -0.000588383 -0.0103981 0.0905402 0.00025 -0.218393 -2.33034 9.6354 
2954364 -0.000608237 -0.0192967 0.0826361 0.00025 -1.0655 -2.86938 10.5882 
2947178 -0.000540093 -0.0122901 0.0908581 0.00025 -0.113457 -2.47424 10.057 
2921549 -0.000655471 0.0256173 0.0211517 0.00035 -0.435241 9.01554 6.98715 
2952785 -0.000257921 -0.0215905 0.0325676 0.00025 0.0287008 -6.31149 9.77631 
2941671 -0.000459736 -0.0211463 0.0822552 0.00025 -0.990067 -2.84579 10.5385 
2956540 -0.0003305 0.0514389 0.0802474 0.00025 -0.189212 6.51159 8.243 
2943277 0.000121336 0.0103159 -0.00684402 0.00035 8.15685 6.55988 -4.88342 
2968369 -0.000886407 0.0175967 0.0227575 0.00025 -0.636951 7.1765 8.62911 
2943057 -0.000140132 0.0460415 -0.00649099 0.00025 0.531243 11.5248 -2.25312 
2940897 -0.000778608 -0.0235079 0.0883096 0.00025 -0.991325 -2.40731 10.3802 
2966672 -0.000671827 -0.0439913 -0.00510617 0.00035 -0.024105 -12.1159 -1.82124 
2919963 -0.000508666 -0.0291763 -0.00523583 0.00035 -0.13447 -11.5604 -2.3355 
2943473 -0.000422413 -0.0826652 0.0428248 0.00025 -0.375071 -10.0711 4.25042 
2945472 -0.000135309 -0.0217104 0.0930107 0.00025 0.0381238 -3.10082 9.53888 
2927426 -0.000175279 0.0605052 0.0961994 0.00035 -0.478973 5.4447 7.94419 
2946249 -0.00033998 -0.0122784 0.084627 0.00035 -0.843441 -1.57963 10.5276 
2935890 -0.000669155 0.0281441 0.00462529 0.00045 -0.863907 12.0193 1.63543 
2954303 -0.000682495 -0.020023 0.0876278 0.00025 -0.839439 -2.68451 10.2484 
2962798 -3.92582e-06 0.0711833 0.0259241 0.00025 0.677538 9.4931 3.40276 
2960422 -0.000435169 -0.0416885 0.0811577 0.00025 -0.903252 -5.92383 8.98102 
2935839 -0.0168355 -0.00707431 -0.0047381 0.00025 16.7208 0.0432634 -1.66224 
2944109 -0.000785349 -0.00956233 -0.00578564 0.00025 8.36801 -6.06106 -4.59363 
2945656 -0.000725732 -0.0442698 0.0793683 0.00025 -0.622802 -6.12345 8.4361 