ITEM: TIMESTEP
955810
ITEM: NUMBER OF ATOMS
32324
ITEM: BOX BOUNDS ff ff ff
-0.705 0.705
-0.1016 0.1016
-0.11 0.11
ITEM: ATOMS id x y z radius vx vy vz 
2946112 -0.123203 -0.0106255 0.00708021 0.00045 9.85085 0.733242 -0.53672 
2946175 -0.121238 -0.0105949 0.00695484 0.00035 10.2212 0.827402 -0.54197 
2949221 -0.118002 -0.0103871 0.00686545 0.00035 10.5078 0.830607 -0.699264 
2943224 -0.117307 -0.0103364 0.0068742 0.00035 10.5085 0.826213 -0.706916 
2952373 -0.124147 -0.0114319 0.00938017 0.00025 9.85683 0.777649 -0.800751 
2956118 -0.138088 -0.0124321 0.00989093 0.00025 8.33477 0.707345 -0.878652 
2949779 -0.140399 -0.0093964 0.0105256 0.00025 8.07362 0.39791 -0.579447 
2951877 -0.112402 0.00156256 0.0201601 0.00055 10.858 -0.133951 -1.82396 
2946572 -0.000342582 0.0712705 -0.108954 0.00025 -0.317221 4.8034 -9.48088 
2944296 -0.00012191 0.0775207 -0.107249 0.00025 -0.0941559 5.30638 -8.85595 
2943516 -0.00290777 0.0962257 -0.108115 0.00025 -0.576753 7.51224 -8.84998 
2941485 -0.00326708 0.0726774 -0.107302 0.00025 -0.658579 5.97356 -10.2275 
2944345 -0.000324444 0.0807277 -0.106856 0.00025 -0.191545 5.82333 -8.96989 
2937665 -0.0027718 0.0826926 -0.106506 0.00025 -0.596669 6.06802 -8.8843 
2938267 -0.00138678 0.0842799 -0.106738 0.00025 -0.310118 6.92278 -9.51192 
2923533 -0.000267682 0.083741 -0.106712 0.00025 -0.129367 6.60348 -9.28336 
2935853 -0.00349392 -0.000629795 -0.107145 0.00025 -1.19379 0.710837 -11.3275 
2919402 -0.00331629 0.0687285 -0.107079 0.00025 -0.718056 5.61801 -10.1931 
2932257 -0.00706555 0.0782249 -0.106069 0.00025 -1.28472 6.66624 -9.97819 
2937719 -0.00696488 0.082013 -0.106726 0.00025 -1.12496 7.04315 -9.91175 
2932534 -0.000690804 0.0836739 -0.106421 0.00025 -0.327499 6.64618 -9.43041 
2938215 -0.00145323 0.0839183 -0.105657 0.00025 -0.552924 6.44555 -9.08621 
2939976 -0.00303683 -0.0205744 -0.10646 0.00025 -1.02971 -2.55088 -11.4415 
2940146 -0.00256759 -0.0170481 -0.105654 0.00025 -0.975342 -1.99543 -11.0924 
2932210 -0.00237398 0.0822496 -0.104697 0.00025 -0.519376 6.99658 -9.65429 
2927375 -0.000621356 0.081755 -0.104686 0.00035 -0.22699 6.86398 -9.68704 
2949919 -0.00184988 0.0830385 -0.104131 0.00025 -0.427685 6.16839 -8.70588 
2944421 -0.00164331 0.0840413 -0.104423 0.00025 -0.5537 6.70422 -9.24028 
2933233 -0.00112342 0.0840788 -0.105169 0.00035 -0.344841 6.7688 -9.21674 
2920844 -0.000587755 0.0843917 -0.105151 0.00025 -0.239842 6.64054 -9.18428 
2944025 -0.000675773 0.08514 -0.105058 0.00025 -0.250167 6.85434 -8.98017 
2941532 -0.00450761 0.0882261 -0.105242 0.00025 -0.747397 7.65085 -9.62521 
2951281 -0.00784283 0.0778631 -0.10334 0.00025 -1.27793 6.50207 -9.53988 
2950991 -0.00178179 0.0874821 -0.103911 0.00025 -0.37343 7.53225 -9.43091 
2935023 -0.00279475 0.0873268 -0.103379 0.00025 -0.607429 6.64345 -8.62932 
2944005 -0.00121929 0.0882914 -0.103763 0.00025 -0.259548 7.5312 -9.36631 
2957270 -0.00143151 0.000575649 -0.103526 0.00025 -0.728822 0.814743 -11.0753 
2924373 -0.00245443 0.0852418 -0.102362 0.00035 -0.580152 7.42676 -9.33912 
2931388 -0.00565657 0.0882882 -0.101522 0.00025 -0.971235 6.73679 -8.45753 
2943476 -0.00227458 0.090204 -0.102776 0.00025 -0.418825 7.72206 -9.2408 
2941394 -0.00120336 0.0901284 -0.102566 0.00025 -0.264518 7.59645 -9.14648 
2934836 -0.00061139 -0.0972065 -0.100693 0.00025 -0.728962 -6.80556 -8.35254 
2945173 -0.001455 -0.0217639 -0.102486 0.00025 -0.733319 -2.84132 -10.9042 
2952491 -0.00181376 -0.0165324 -0.103023 0.00025 -0.946351 -1.8093 -11.3791 
2945237 -0.00535085 0.063212 -0.102253 0.00025 -1.33702 4.93587 -9.72289 
2943073 -0.00966196 0.0862615 -0.100963 0.00025 -1.54971 7.53317 -9.27693 
2931977 -0.0103754 0.0893619 -0.101077 0.00025 -1.64341 7.90927 -9.24587 
2934767 -0.00718969 0.0919859 -0.100796 0.00025 -1.15155 8.1337 -9.17149 
2926194 -0.000565306 0.0913766 -0.1016 0.00025 -0.169637 7.72376 -8.9556 
2938188 -0.000855224 0.091576 -0.101044 0.00025 -0.330733 7.70085 -8.95364 
2938108 -0.00605425 0.0757737 -0.100645 0.00025 -1.07346 6.30447 -9.29473 
2950864 -0.00325537 -0.0142387 -0.0998665 0.00025 -1.09329 -1.50151 -10.4691 
2942646 -0.00633657 0.0735696 -0.0990602 0.00025 -1.13262 6.17996 -9.25521 
2944552 -0.0056666 0.0813187 -0.0991737 0.00025 -1.08797 7.10989 -9.18922 
2931880 -0.000983993 0.0888598 -0.0992729 0.00025 -0.433732 7.12906 -8.67095 
2933956 -0.000674871 0.0951074 -0.0985954 0.00025 -0.194009 8.25727 -8.75827 
2947800 -0.00177714 -0.0133534 -0.0991658 0.00025 -0.738358 -1.38835 -10.38 
2951657 -0.00150791 -0.0107459 -0.0988277 0.00025 -0.713738 -0.854461 -10.4089 
2939020 -0.00626376 0.0792792 -0.0982762 0.00035 -1.23746 6.88041 -9.09663 
2941367 -0.00131095 0.0803119 -0.0984292 0.00025 -0.476418 6.82748 -9.04599 
2934539 -0.000968321 0.0860502 -0.0976077 0.00035 -0.388417 7.54527 -8.95724 
2951340 -0.0072576 0.08699 -0.0978221 0.00025 -1.2777 7.67058 -8.95919 
2944095 -0.000790225 0.0872784 -0.0970944 0.00025 -0.389919 7.26949 -8.45592 
2940549 -0.00644766 0.08896 -0.098163 0.00025 -1.08234 7.83087 -8.97279 
2925491 -0.00160356 -0.0236993 -0.0982704 0.00025 -0.577278 -2.90425 -10.8343 
2946604 -0.00575058 0.0766058 -0.0970732 0.00025 -1.15446 6.43469 -8.997 
2927350 -0.00123174 0.0801201 -0.0972455 0.00035 -0.568902 7.14279 -9.14416 
2942802 -0.00794504 0.0875012 -0.0963597 0.00025 -1.3527 7.69769 -8.8351 
2953709 -0.0013335 -0.015721 -0.0967722 0.00025 -0.652055 -1.71994 -9.98037 
2932363 -0.00045015 -0.0130118 -0.09639 0.00025 -0.380533 -1.21958 -10.1615 
2918506 -0.00511645 0.0856893 -0.0953445 0.00035 -1.10464 7.73591 -8.8869 
2943468 -0.013546 0.087695 -0.0955246 0.00025 -2.16471 7.8272 -8.82962 
2929286 -0.00546792 0.0970529 -0.0956778 0.00025 -0.915648 8.64271 -8.58081 
2912656 -0.00275058 -0.0971652 -0.0936212 0.00045 -0.132262 -8.65014 -8.48495 
2921604 -0.0044005 0.0862308 -0.0926992 0.00035 -0.959763 7.83301 -8.70801 
2946961 -0.00403339 0.0986306 -0.0930891 0.00025 -0.735044 8.83997 -8.28637 
2938969 -0.00195568 0.00854448 -0.0949888 0.00035 -0.0381474 1.3066 -12.3743 
2925845 -0.00178823 0.0834562 -0.0914992 0.00035 -0.643646 7.48572 -8.46071 
2946634 -0.00528692 0.101656 -0.0920968 0.00025 -0.878685 9.22374 -8.15304 
2933036 -0.00530596 0.00927899 -0.0943873 0.00045 -0.636606 1.30188 -12.2705 
2924266 -0.00389666 0.0103265 -0.0934542 0.00045 -0.311709 1.42297 -12.2592 
2942092 -0.00296586 0.0726828 -0.0904927 0.00025 -0.689229 6.08246 -8.21716 
2923070 -0.00645207 0.0884578 -0.0910861 0.00035 -1.33714 8.06434 -8.49411 
2945850 -0.0128719 0.0902285 -0.0911349 0.00025 -2.02807 8.05059 -8.22533 
2943139 -0.00826003 0.0977448 -0.0902195 0.00025 -1.41967 8.92518 -8.06652 
2950505 -0.001109 0.00889925 -0.0924622 0.00035 0.191221 1.36768 -12.2282 
2930126 -0.00225087 0.0134969 -0.0922368 0.00045 -0.0705039 1.84361 -12.1947 
2925964 -0.00789562 0.0917584 -0.0897619 0.00035 -1.47333 8.03178 -7.94263 
2921362 -0.00606825 -0.00144234 -0.0916592 0.00045 -0.921352 -0.0533436 -12.0836 
2921381 -0.00206003 0.00712096 -0.0915043 0.00045 -0.0216889 1.02025 -12.2388 
2930117 -0.00513127 0.0233585 -0.0909634 0.00045 -0.716754 2.99147 -11.9109 
2941734 -0.00117919 0.00642067 -0.0903847 0.00045 0.17529 1.0914 -12.2605 
2930290 -0.00175605 0.0848942 -0.087534 0.00035 -0.632773 7.71974 -8.09007 
2927506 -0.00864012 0.0940801 -0.0865108 0.00025 -1.45496 8.53145 -7.61732 
2924287 -0.000827773 -0.0115673 -0.0893561 0.00045 -0.0139623 -1.5692 -12.3059 
2935883 -0.00589572 0.000253451 -0.0896232 0.00055 -0.726561 0.180326 -12.003 
2938999 -3.03744e-05 0.0158725 -0.0894915 0.00035 1.20856 2.18109 -11.7493 
2933240 1.99244e-05 0.0223162 -0.0893637 0.00035 0.975552 2.72766 -11.9831 
2925855 -0.00141023 0.100225 -0.08613 0.00035 -0.445268 9.21889 -7.5499 
2959045 -0.000854011 -0.0182506 -0.0875902 0.00025 -0.0469727 -2.56464 -11.6456 
2944674 -0.00171147 0.0221501 -0.0878818 0.00035 0.0498175 2.84976 -11.5921 
2941995 -0.00173723 0.0719612 -0.0854214 0.00025 -0.559551 6.25313 -8.18106 
2948012 -0.00688676 0.0847988 -0.0852113 0.00025 -1.33088 7.74872 -7.84897 
2949924 -0.0125464 0.0914479 -0.0847514 0.00025 -2.06864 8.24325 -7.5292 
2943163 -0.111197 -0.00147155 0.0198709 0.00045 10.6295 -0.325327 -2.00725 
2941814 -0.00160133 0.0279804 -0.0865754 0.00035 0.0212163 3.6736 -11.6033 
2915525 -0.00655917 0.000317392 -0.0847986 0.00055 -0.835069 0.185893 -11.5215 
2936996 -0.00222303 0.0828943 -0.0809332 0.00025 -0.693156 7.64391 -7.47321 
2921358 -0.00147004 0.0306259 -0.0830565 0.00045 0.118526 4.07221 -11.1835 
2927394 -0.00042622 0.0847191 -0.0807292 0.00035 -0.444718 8.12358 -7.64627 
2931519 -0.000264772 0.0314529 -0.0808138 0.00055 0.261181 4.41582 -11.0921 
2948422 -0.00171127 0.0862992 -0.0778178 0.00025 -0.525435 8.1513 -6.97988 
2932136 -0.00366056 0.0891083 -0.0758762 0.00025 -0.93761 8.43794 -6.72998 
2948023 -0.00123017 0.0618659 -0.0768785 0.00025 -0.851532 6.23119 -8.74777 
2919897 -0.00246317 0.0689929 -0.0781196 0.00045 -0.306453 8.53798 -9.96075 
2949653 -0.000354541 0.0705611 -0.0745686 0.00025 -0.300817 7.34223 -8.04404 
2944884 -0.000951929 0.0672615 -0.0737045 0.00025 -0.705358 7.22556 -8.34375 
2944271 -0.00122859 0.0690464 -0.074336 0.00025 -0.525932 7.18045 -7.96005 
2941968 -0.00102476 0.0701985 -0.0746292 0.00035 -0.0365046 8.71783 -9.49516 
2951528 -0.00076999 -0.0104239 -0.0748175 0.00025 -0.94874 -1.2755 -10.161 
2939013 -0.000549785 0.0711714 -0.0740289 0.00035 0.0544091 8.97227 -9.60273 
2935978 -9.10316e-05 0.0661169 -0.0729127 0.00035 -0.0493924 8.00409 -8.95263 
2942609 -0.000758836 0.0700476 -0.0721543 0.00025 -0.647831 7.812 -8.17177 
2959209 -0.0019311 0.0597794 -0.0711845 0.00045 -0.174874 7.73585 -9.47204 
2921345 -0.00852445 0.0640754 -0.0714409 0.00055 -1.32782 8.23324 -9.4221 
2953366 -0.0044519 0.0622852 -0.070469 0.00045 -0.5601 8.14729 -9.37586 
2948075 -0.00018098 0.0617133 -0.0702586 0.00025 0.278659 7.94919 -9.24053 
2950688 -0.0016429 0.0627761 -0.0695312 0.00035 -0.116938 7.89833 -9.05476 
2933033 -0.00598466 0.066026 -0.0690074 0.00045 -0.945289 8.50536 -9.08517 
2921377 -0.00033009 0.0748799 -0.0684081 0.00045 0.0261739 9.16178 -8.41501 
2934422 -0.00300465 0.0641728 -0.0684174 0.00055 -0.336365 8.46554 -9.29 
2937376 -0.00284467 0.0732955 -0.0681749 0.00045 -0.384821 9.5127 -8.90214 
2943690 -0.00207298 -0.0905398 -0.0649727 0.00025 -1.73731 -9.19824 -6.31045 
2930897 -0.0020753 0.0956826 -0.0641287 0.00025 -1.72174 7.71537 -6.60038 
2921376 -0.00215033 0.0679784 -0.063528 0.00045 -0.221525 8.9644 -8.48363 
2939567 -0.00126254 0.093316 -0.0616819 0.00025 -1.35333 7.01396 -5.99784 
2947247 -0.00189113 0.0597198 -0.0606693 0.00025 -0.769009 8.03579 -8.0321 
2922787 -0.0014746 0.0654485 -0.0606617 0.00055 -0.182104 9.0215 -8.41473 
2939492 -0.000270656 0.0660182 -0.0593258 0.00025 -0.293624 9.42176 -7.96861 
2922014 -0.00191028 0.0525396 -0.0577276 0.00025 -1.37966 7.06293 -8.58154 
2932965 -0.000243524 0.0815235 -0.0525756 0.00055 0.715151 10.1572 -6.5727 
2915520 -0.00209457 0.0875666 -0.0526206 0.00055 -0.0719643 10.5529 -6.41718 
2927818 -0.00133956 0.0524871 -0.0518385 0.00025 -1.12107 7.17423 -7.17955 
2965063 -5.65835e-06 0.0285693 -0.0513825 0.00035 0.829408 5.99865 -11.1548 
2924407 -0.000149441 0.0275813 -0.0499272 0.00035 0.800954 5.82582 -11.1744 
2932981 -0.00112034 0.00318287 -0.0490574 0.00055 -0.18585 1.00268 -12.5205 
2946864 -0.00199068 0.046949 -0.043917 0.00025 -2.20917 8.35064 -7.49856 
2945153 -0.000242951 -0.100859 -0.0350385 0.00025 0.247759 -10.9112 -4.06697 
2935878 -0.000380036 0.0334587 -0.0382174 0.00055 -0.151493 7.93216 -9.38252 
2925648 -0.000192946 0.074234 -0.0344316 0.00025 0.504284 10.9731 -4.6116 
2947529 -1.78335e-05 0.0370278 -0.0373829 0.00045 0.225794 8.53421 -9.10958 
2945578 -0.000481724 0.0707742 -0.0329236 0.00025 -0.309088 10.128 -4.43245 
2956231 -0.000179122 0.0339573 -0.031757 0.00055 0.038628 8.9118 -8.5736 
2952006 -5.39204e-05 0.0446128 -0.0284808 0.00035 0.194741 10.1791 -6.62344 
2957174 -0.000195765 0.0735279 -0.0254988 0.00025 0.167318 11.0469 -3.47763 
2918447 -0.00103672 -0.0472266 -0.026259 0.00045 0.116895 -10.4327 -6.11493 
2950580 -0.000293864 0.0465399 -0.0259251 0.00035 0.425963 10.6303 -6.12761 
2950607 -1.49511e-05 0.0487766 -0.0254148 0.00035 0.900256 10.4348 -5.8464 
2918437 -0.000491943 0.021036 -0.0267131 0.00055 -0.403449 7.62219 -10.151 
2938479 -0.00184458 -0.0737226 -0.0175769 0.00025 -2.06565 -10.9277 -3.18534 
2961030 -3.21094e-05 0.0384143 -0.0205687 0.00025 0.293544 10.6466 -5.99801 
2938798 -0.00178484 -0.085075 -0.0164035 0.00045 -0.137113 -11.5189 -2.31029 
2933906 -0.00124199 -0.0677905 -0.01685 0.00025 -1.41174 -9.45051 -3.21843 
2924261 -0.00013258 -0.0406225 -0.0183376 0.00045 0.156091 -11.0219 -5.52914 
2937661 -0.0001997 0.0188895 -0.0221101 0.00025 0.0107694 7.43998 -9.89713 
2956189 -0.00144577 -0.067708 -0.0163302 0.00025 -1.37243 -9.18054 -3.16918 
2933230 -0.000247314 0.0204978 -0.0208145 0.00035 -0.0613376 8.90645 -9.75132 
2951903 -0.00128093 0.0503763 -0.0168101 0.00045 0.267932 10.856 -3.87558 
2954821 -0.000529896 0.0503604 -0.0152486 0.00045 0.565702 11.308 -3.42265 
2924258 -0.000109763 0.0558582 -0.0143876 0.00045 0.370266 11.2935 -2.78939 
2943199 -0.000821179 0.0568527 -0.0147605 0.00045 0.483508 11.4234 -3.08724 
2923897 -0.00151844 -0.071809 -0.013026 0.00025 -1.58043 -10.2316 -2.3048 
2940300 -0.000125559 -0.0524978 -0.0139409 0.00045 0.666315 -11.7483 -3.4693 
2944648 -0.000376286 0.0253542 -0.0176294 0.00045 -0.142547 10.6762 -7.45262 
2967464 -0.00169116 -0.0756963 -0.012318 0.00025 -1.72419 -11.4041 -2.26275 
2968388 -0.00014383 -0.0273802 -0.0149649 0.00025 0.0838765 -10.2799 -6.23047 
2952067 -0.112799 0.0105595 0.00958555 0.00035 10.9546 -0.83229 -1.06777 
2943160 -0.111645 0.010096 0.00920855 0.00045 11.0832 -0.74684 -1.06387 
2942762 -0.000850477 0.0584031 0.0946052 0.00025 -1.07809 5.7539 8.53491 
2950528 -0.000155696 0.0512429 -0.0123037 0.00035 1.1347 11.247 -2.80952 
2944653 -0.000877161 0.0527105 -0.0127795 0.00045 0.500737 11.3174 -2.88097 
2935924 -0.000153417 -0.0491695 -0.0106976 0.00045 0.238557 -11.5985 -2.78723 
2934463 -0.109687 0.0101389 0.0108282 0.00045 11.4971 -0.876962 -1.0529 
2947243 -0.00153789 -0.00224719 -0.0119362 0.00025 9.64945 -1.11423 -7.74221 
2929756 -0.00141288 -0.000848263 -0.0119976 0.00025 9.50018 -0.922237 -7.84657 
2958099 -0.000805713 0.000363018 -0.0122018 0.00025 8.67733 0.813302 -8.18606 
2934689 -0.000828738 0.00120691 -0.0119708 0.00035 9.0438 0.923757 -8.18992 
2961746 -2.9634e-05 0.00112828 -0.0127289 0.00025 8.03947 0.822319 -8.78799 
2935035 -0.000173258 0.0645473 0.100127 0.00025 -0.326396 5.84438 7.56136 
2940369 -0.000227726 -0.0222057 0.0955023 0.00035 -0.250328 -2.83645 9.70801 
2923283 -0.00084508 -0.0224047 0.0916439 0.00025 -0.511485 -3.0532 9.66125 
2931543 -7.63958e-05 0.00224023 -0.0116133 0.00045 9.63393 0.837809 -7.68357 
2931106 -0.000316335 0.0389009 0.0919849 0.00025 -0.543215 3.86687 9.33965 
2949914 -0.000110403 0.000333899 0.0917417 0.00025 0.303464 -0.988441 9.80625 
2940455 -0.109903 -0.0101457 0.00774135 0.00035 11.3666 0.843541 -0.899504 
2937328 -0.109947 0.0101481 0.00980017 0.00055 11.2689 -0.827089 -1.02467 
2953617 -0.000600854 -0.0237572 0.0882062 0.00025 -0.998991 -2.64997 10.3568 
2931161 -0.000105866 0.0879177 0.0812156 0.00025 -0.196842 7.35378 5.69467 
2940728 -0.000134035 0.047738 0.079113 0.00025 -0.0608252 6.33953 7.90338 
2951793 -0.000849436 -0.0453445 0.0829458 0.00025 -0.944483 -6.83394 8.47048 
2920248 -0.000419455 0.0214434 -0.0136683 0.00025 -0.158874 9.44329 -6.49323 
2959862 -7.75051e-05 0.0511374 -0.0105766 0.00025 0.629497 10.7913 -2.588 
2942644 -0.000292585 -0.0371386 0.0741358 0.00025 -0.816996 -5.7949 8.91902 
2937335 -0.109271 -8.1739e-05 -0.000100163 0.00055 11.7126 0.207199 -0.482567 
2946135 -0.109436 -0.000916656 -0.000662571 0.00035 11.6279 0.000895432 -0.130138 
2947467 -0.111843 -0.0100317 0.00670476 0.00025 11.6509 0.810222 -0.542537 
2934418 -0.11397 -0.0104418 0.00945421 0.00055 10.513 0.811822 -0.811949 
2954567 -0.000112012 -0.0196597 0.0738527 0.00025 0.56524 -3.04687 9.4851 
2956718 -0.000327156 -0.0158853 0.071057 0.00025 -0.0719609 -3.60442 9.17753 
2949693 -0.00803659 -0.00217152 -0.00867061 0.00025 15.6928 0.00105495 -2.48808 
2954390 -0.000265916 -0.0115551 0.0663866 0.00025 -0.301911 -2.53553 9.84649 
2935127 -0.0072657 0.000140678 -0.00884375 0.00025 15.2895 0.0520433 -2.38728 
2919896 -0.00169602 0.00110689 -0.0107015 0.00045 10.4487 0.747693 -6.63027 
2940553 -0.00108807 0.000565961 -0.0117519 0.00025 8.77111 0.818763 -7.80958 
2952332 -0.000782105 0.000716251 -0.0112321 0.00025 9.25339 0.356108 -8.02452 
2947399 -0.000454946 0.00105554 -0.0115041 0.00025 8.95675 0.762591 -8.009 
2940267 -0.000442032 0.00112033 -0.0104146 0.00045 9.70674 0.662172 -7.09604 
2952095 -0.000119372 0.000379619 -0.0116455 0.00035 8.71448 0.620763 -8.09606 
2925540 -0.000781144 0.0577656 0.0937523 0.00025 -1.08998 5.40772 8.63548 
2920000 -0.0019531 0.00190042 -0.0105002 0.00035 9.86906 0.981791 -6.65819 
2946164 -0.000934594 0.00180291 -0.0105886 0.00035 9.86116 0.794767 -7.47694 
2939780 -0.000331668 0.076957 0.0619237 0.00025 -0.118069 6.90311 5.47048 
2969983 -0.000365282 -0.00764215 0.0443994 0.00025 -0.346498 -2.09071 10.8569 
2924115 -1.58352e-05 0.0458701 -0.00950055 0.00025 0.681628 11.0179 -2.60116 
2924410 -0.000647192 0.0487213 -0.0101829 0.00035 1.06735 11.2502 -2.85984 
2957607 -0.00015039 0.0483649 -0.0103191 0.00025 1.137 10.7553 -2.79607 
2920045 -0.000413022 -0.0516573 -0.00785402 0.00035 0.628482 -11.8869 -2.27192 
2949864 -0.000167657 -0.0906537 0.0379754 0.00025 -0.041288 -9.16651 4.12983 
2950474 -0.00130627 -0.0466704 -0.00881388 0.00045 -0.268346 -11.899 -2.43145 
2960468 -0.00028444 -0.0440106 -0.00815067 0.00025 0.559288 -11.5247 -2.36156 
2922799 -0.000443505 -0.0416261 -0.00926332 0.00055 -0.165824 -11.8936 -2.83605 
2940234 -0.110514 0.00994679 0.00888223 0.00055 11.2375 -1.03288 -0.887745 
2952239 -0.00843614 -0.00279008 -0.00880377 0.00025 16.2768 -0.0871122 -2.26263 
2950216 -0.0029983 -0.00369717 -0.00875383 0.00025 12.1978 -1.9819 -5.19506 
2920819 -0.000272309 -0.0162892 0.0380941 0.00025 -0.115881 -4.6795 10.2333 
2952920 -0.00832257 -0.00195813 -0.00824034 0.00025 15.772 -0.38406 -3.2709 
2949262 -0.000223792 -0.0236261 0.0941071 0.00025 0.301026 -2.92329 8.8795 
2947088 -0.000853375 -0.000466482 -0.0102182 0.00025 8.85158 -0.803402 -7.35767 
2935404 -0.00133609 0.000938013 -0.0101423 0.00025 10.5362 0.370045 -6.26041 
2928813 -0.00762145 0.00121835 -0.00832264 0.00035 15.5237 0.281967 -2.64255 
2955046 -0.00116623 0.00247129 -0.00948242 0.00035 10.1656 0.757818 -6.24837 
2951944 -0.000386184 0.00222787 -0.0105133 0.00035 9.47605 0.865027 -7.73524 
2940891 -0.000402289 -0.0176743 0.0929539 0.00025 -0.251314 -2.55794 10.112 
2938553 -0.000175333 0.018774 0.0890158 0.00025 -0.232641 2.7542 10.3052 
2950554 -0.000277648 0.0476385 -0.00933095 0.00035 0.471892 11.3544 -2.7098 
2936049 -0.000767307 0.0480102 -0.00899941 0.00035 0.666692 11.4585 -2.56028 
2947746 -7.0529e-06 0.0514763 -0.00909131 0.00035 0.612086 11.3415 -2.43679 
2952334 -0.110437 -0.00803473 0.00537259 0.00025 11.5297 0.764673 -0.599012 
2938950 -0.000594872 -0.0200574 0.0833568 0.00035 -1.02239 -3.10877 10.4402 
2939723 -0.000591431 -0.0442733 0.0756097 0.00025 -0.698572 -5.62285 9.0438 
2927403 -0.0001463 -0.0502696 -0.00753609 0.00035 0.941731 -11.7689 -2.29115 
2956798 2.71018e-05 -0.0499382 -0.00641435 0.00025 1.58255 -11.7214 -2.24153 
2962494 -4.34044e-05 -0.0469805 -0.00758005 0.00025 1.29198 -12.0071 -2.2716 
2940021 -0.000703117 -0.0421542 0.073511 0.00025 -0.943536 -5.65563 8.84815 
2955092 -1.78508e-05 -0.0439228 -0.00652155 0.00025 0.34213 -11.5879 -1.74657 
2971248 -7.77818e-06 -0.0430158 -0.00769043 0.00025 0.677885 -11.0877 -2.20645 
2970094 -0.000134527 -0.0393214 -0.00680623 0.00025 -0.0591366 -10.9926 -2.26708 
2972187 -0.000120044 -0.0401469 -0.00801888 0.00025 0.105808 -11.2605 -2.63968 
2933640 -0.000204769 -0.0389182 -0.0074915 0.00025 0.484739 -11.0856 -2.47428 
2935668 -0.000223468 -0.0257646 -0.00852883 0.00025 0.29623 -10.532 -4.24178 
2964250 -0.000174077 0.0328748 0.0296085 0.00025 -0.0353889 8.58122 7.39122 
2933659 -0.000434127 0.0353625 0.0248561 0.00025 -0.00230698 9.61509 6.6807 
2931238 -0.000621786 -0.0417281 0.0719726 0.00025 -0.709082 -5.43056 8.91468 
2941110 -0.0214727 -0.0024338 -0.0074082 0.00025 16.348 0.304275 -1.68446 
2931511 -0.0211628 -0.00252413 -0.00667795 0.00055 16.341 0.110221 -1.70345 
2956033 -0.018554 -0.00305145 -0.00614583 0.00025 16.6162 -0.0556999 -1.28438 
2952297 -0.0211102 -0.00151358 -0.00690919 0.00025 16.6009 0.085041 -1.81126 
2952338 -0.0201185 -0.00201309 -0.00734186 0.00025 16.7046 -0.00152033 -2.1714 
2952984 -0.0198275 -0.00157302 -0.00679567 0.00025 16.7978 0.000348621 -1.98053 
2941498 -0.0195674 -0.00117114 -0.00697472 0.00025 16.8621 0.0907538 -1.78344 
2920633 -0.0155849 -0.00190051 -0.00756827 0.00025 16.6798 -0.0456061 -2.49136 
2934541 -0.0149425 -0.00169771 -0.00769631 0.00035 16.6457 -0.151255 -3.01523 
2928882 -0.00368748 -0.00255429 -0.00778945 0.00035 13.4411 -0.897383 -4.18299 
2925839 -0.0031773 -0.00271417 -0.00732943 0.00035 13.5203 -1.23107 -4.23856 
2951919 -0.00165985 -0.00202044 -0.00849373 0.00045 11.7491 -0.858726 -6.07062 
2925748 -0.0224134 -0.000678282 -0.00685531 0.00045 16.4043 0.0481296 -1.37159 
2925707 -0.0104887 -0.000731796 -0.00578599 0.00055 16.118 -0.0339474 -1.3556 
2925753 -0.00666578 -0.000849514 -0.00711577 0.00045 15.5903 -0.231167 -2.70124 
2929326 -0.00468879 -0.00036063 -0.00617025 0.00025 13.3871 -0.564727 -2.93084 
2931746 -0.0019764 -0.00109036 -0.0084962 0.00035 11.4513 -0.785191 -5.97465 
2936995 -1.86438e-05 -0.0621012 0.10159 0.00025 -0.0300101 -6.09147 8.41404 
2945999 -0.000488048 0.0612448 0.0987272 0.00025 -0.885921 5.31 7.97173 
2955774 -0.0264883 0.000909863 -0.00643105 0.00025 16.4974 0.102802 -1.86483 
2948076 -0.000642221 0.026585 0.0241088 0.00025 -0.63927 8.64952 7.49276 
2950364 -0.0333649 0.00137611 -0.00641776 0.00025 16.537 -0.0175054 -1.34496 
2928820 -0.0189442 0.0015765 -0.00690949 0.00035 16.849 0.369831 -1.47915 
2937399 -0.00946404 0.00130993 -0.00733849 0.00045 15.9325 0.240926 -2.47105 
2925771 -0.000545106 0.014016 0.0143072 0.00035 -0.575207 8.03092 7.60823 
2949454 -0.000909159 0.00414624 0.0271952 0.00025 -0.398049 2.22481 11.3715 
2930054 -5.41454e-05 0.0112451 0.0629899 0.00055 -0.0664851 1.96508 10.8475 
2951306 -0.000376065 0.0268044 0.0222317 0.00025 -0.330154 9.16458 7.27192 
2954936 -4.00053e-05 0.00842661 -0.0091639 0.00035 7.79766 5.08348 -6.55709 
2946208 -0.113894 -0.0097137 0.00567758 0.00035 11.0625 0.74969 -0.517358 
2920644 -0.000241582 0.0212512 0.0997176 0.00025 -0.389207 2.33784 9.79609 
2948018 -0.000546166 -0.0835967 0.055526 0.00025 -0.666041 -8.55581 4.01657 
2921401 -0.00177397 0.0473483 -0.00707757 0.00045 0.352686 10.9668 -2.13375 
2923340 -0.000160526 0.0778054 0.108091 0.00025 -0.227796 5.499 8.43705 
2956307 -0.000218562 -0.0461105 -0.00625198 0.00035 0.396618 -11.7535 -1.86961 
2932967 -0.000282453 -0.045214 -0.00623782 0.00055 -0.157033 -12.03 -1.84702 
2965176 -3.88571e-05 -0.0432632 -0.00603643 0.00035 0.25622 -11.5182 -1.93664 
2919131 -0.000136709 -0.040733 -0.00636227 0.00025 0.119522 -11.8017 -2.17205 
2940243 -0.113377 -0.00917538 0.00517782 0.00055 10.9592 0.703035 -0.681517 
2927682 -0.00039085 0.0309874 0.0264197 0.00025 -0.569558 8.87542 7.36488 
2927207 -0.00124483 -0.00941852 0.0217238 0.00045 -1.76993 -4.62511 9.46917 
2921917 -0.000589404 0.0583709 0.0940535 0.00025 -0.964837 5.56461 8.46544 
2956049 -0.000501595 0.00441149 0.021446 0.00025 -0.364446 2.0649 10.8217 
2959125 -0.0154746 -0.00589362 -0.00575117 0.00025 16.6555 -0.806266 -2.2816 
2933762 -0.000678153 0.0576351 0.0932715 0.00025 -1.1081 5.38601 8.59866 
2918841 -0.000783955 0.0576044 0.0920361 0.00025 -1.28989 5.26215 8.48471 
2945420 -0.000157695 0.0500219 0.0453948 0.00025 -0.0962057 8.01626 6.9298 
2935056 -0.0187771 -0.00383254 -0.00605808 0.00025 16.6346 0.0178859 -1.41298 
2931590 -0.0158492 -0.00435605 -0.00649633 0.00035 16.6079 -0.0261819 -2.54797 
2952352 -0.0189291 -0.00284838 -0.00583641 0.00025 16.5906 -0.141796 -1.43121 
2958318 -0.0197732 -0.00301376 -0.00534233 0.00025 16.7283 -0.0531845 -1.60538 
2934531 -0.0184736 -0.00258094 -0.00544939 0.00035 16.4966 -0.0488349 -1.21575 
2947494 -0.0180556 -0.0026115 -0.00502093 0.00025 16.6142 -0.0470084 -1.32187 
2944343 -0.0167464 -0.00288932 -0.00502168 0.00025 16.642 0.218916 -1.38853 
2956110 -0.0118124 -0.00217771 -0.00492257 0.00025 16.6915 0.316064 -0.69675 
2944273 -0.00785527 -0.00408315 -0.00626603 0.00025 15.8574 -1.20988 -3.42342 
2949179 -0.0279928 -0.00168875 -0.00524578 0.00035 16.4007 -0.0533039 -1.71949 
2949576 -0.023024 -0.00195424 -0.00538726 0.00025 16.6732 0.0984631 -1.57765 
2943896 -0.0205679 -0.00185388 -0.00641602 0.00025 16.6878 0.0790992 -2.035 
2934889 -0.0192612 -0.00180341 -0.0056472 0.00025 16.7164 -0.0274239 -1.54544 
2925887 -0.0188582 -0.0016022 -0.00521464 0.00035 16.6475 -0.00197275 -1.35137 
2952448 -0.0181858 -0.00180801 -0.00520792 0.00025 16.6218 0.0765505 -0.997669 
2952512 -0.00922818 -0.00145332 -0.00645699 0.00025 15.9173 -0.111205 -2.76086 
2950044 -0.00523891 -0.0014344 -0.0047744 0.00025 13.7128 -0.451164 -1.62935 
2922829 -0.00504353 -0.00160247 -0.00542106 0.00045 14.1598 -0.563051 -1.47605 
2917166 -0.00447903 -0.0021926 -0.00562307 0.00035 13.0535 -0.550978 -2.19887 
2935400 -0.000377249 0.0253473 0.0158381 0.00025 -0.489613 10.3755 6.27992 
2929399 -0.000239021 0.0625004 0.0991912 0.00025 -0.42319 4.85553 7.29803 
2956188 -0.0389059 -0.00017873 -0.00523843 0.00025 16.649 -0.148993 -1.61318 
2943347 -0.0343256 -0.000269527 -0.00544705 0.00035 16.5979 -0.0349 -1.28303 
2949428 -0.0323817 -0.000357532 -0.00511335 0.00025 16.6784 -0.231341 -1.5486 
2937358 -0.0292885 -0.00070368 -0.00529873 0.00045 16.48 0.239848 -0.966437 
2956100 -0.0265186 -0.000913149 -0.00511102 0.00025 16.3897 -0.0168413 -1.35343 
2950280 -0.0215868 -0.000796529 -0.00624977 0.00025 16.9236 0.184277 -2.0495 
2925694 -0.0202906 -0.000846057 -0.00605035 0.00055 16.4957 0.022334 -1.9301 
2944465 -0.0144997 -0.0007652 -0.00636846 0.00025 17.1797 -0.110249 -3.269 
2935027 -0.00305656 -0.00108299 -0.00737414 0.00025 12.6629 -0.477098 -5.21379 
2946312 -0.000544958 -0.0153367 0.0901239 0.00035 -0.687677 -1.98679 10.2919 
2940413 -0.0343289 0.000904382 -0.00541993 0.00035 16.5332 -0.0983196 -1.64406 
2946965 -0.0329064 0.00109799 -0.00645239 0.00025 16.8307 0.082248 -2.04597 
2944009 -0.0288625 -7.76858e-05 -0.00590113 0.00025 16.7021 -0.12295 -1.27256 
2952933 -0.0291748 0.000470892 -0.00508546 0.00025 16.4138 0.0701562 -1.10907 
2935046 -0.028767 0.000328906 -0.00619292 0.00025 16.6451 -0.28633 -1.6822 
2947062 -0.0283482 4.32331e-06 -0.00624933 0.00025 16.6669 -0.102287 -1.72439 
2922840 -0.0284354 0.00062719 -0.00565111 0.00045 16.5052 -0.0867909 -1.7955 
2958886 -0.0269855 0.00102753 -0.0052027 0.00025 16.7346 0.325184 -1.76989 
2928779 -0.00934504 0.000696218 -0.00614889 0.00035 16.1035 0.268089 -2.47131 
2938691 -0.00788992 0.00109612 -0.00619342 0.00025 15.7729 0.501685 -3.0832 
2919899 -0.00628322 0.000484511 -0.0061578 0.00045 15.406 -0.0938176 -2.86886 
2955706 -0.000343774 0.0203402 0.0111834 0.00025 -0.267667 10.4211 5.51903 
2950836 -0.000607831 -0.0227556 0.0882214 0.00025 -0.883607 -2.84146 9.98462 
2930728 -0.000111724 -0.0609327 0.0980234 0.00025 -0.197496 -5.7412 8.33339 
2938268 -0.000358298 0.0612472 0.0961047 0.00025 -0.470393 5.18619 8.70812 
2957220 -0.000788755 -0.0198597 0.0852475 0.00025 -1.17953 -2.99468 10.317 
2925899 -0.00038589 -0.0170098 0.110249 0.00035 -0.642198 -2.12311 10.0068 
2942147 -0.000644193 0.056568 0.0918075 0.00025 -1.13871 5.58514 8.40524 
2937654 -0.000417477 0.0794689 0.085826 0.00025 -0.721751 5.78333 5.95915 
2933873 -0.000401035 0.0608944 0.093507 0.00025 -0.574344 4.56724 8.38389 
2954016 -0.000756058 0.0569664 0.0928261 0.00025 -1.0661 5.49967 8.37308 
2963284 -0.000411323 0.0480631 0.0412311 0.00025 -0.371015 7.915 7.09426 
2961185 -0.000377377 -0.00962678 0.0444354 0.00025 -0.370925 -2.48068 10.6961 
2950131 -0.000155278 0.0228182 0.00632288 0.00025 0.0837862 11.4815 2.43661 
2944251 -0.000766891 -0.0202272 0.0862626 0.00025 -1.09363 -2.86285 10.5367 
2937050 -0.000711259 -0.0186684 0.0824017 0.00025 -1.19069 -2.82192 10.4383 
2936823 -0.00021397 -0.0139576 0.0946242 0.00025 -0.249004 -2.15698 9.78705 
2927723 -0.00013511 0.0190764 0.0406054 0.00025 0.57718 5.10914 9.59125 
2943767 -0.000763512 0.058678 0.0936577 0.00025 -1.0646 5.42509 8.69391 
2954080 -0.000302424 -0.0106242 0.0474258 0.00025 0.100948 -2.32774 10.4672 
2952057 -0.028405 0.00411109 -0.00582616 0.00035 16.4744 -0.0932686 -2.09581 
2946367 -0.0219302 0.00385877 -0.00554924 0.00025 16.5793 -0.110228 -1.82244 
2955685 -0.0092752 0.00334498 -0.00643747 0.00025 16.0035 0.232365 -2.46099 
2938775 -0.000546954 -0.0224267 0.0872272 0.00025 -0.838548 -3.04256 10.0767 
2943794 -0.00060122 0.0561291 0.0915729 0.00025 -0.806508 5.73926 8.14014 
2920924 -0.000947521 0.0570924 0.0904642 0.00025 -1.37007 5.73273 7.8646 
2937324 -0.000852267 0.0554325 0.0896255 0.00025 -1.34108 5.32588 8.36668 
2934241 -0.000411506 0.0238141 0.0393903 0.00025 -0.398994 6.05339 9.21388 
2949518 -0.000573265 -0.0102817 0.0900582 0.00025 -0.3867 -2.32063 9.64444 
2954364 -0.00055444 -0.0191525 0.0821067 0.00025 -1.08386 -2.89956 10.588 
2947178 -0.000533694 -0.0121663 0.0903548 0.00025 -0.179396 -2.47575 10.0963 
2921549 -0.000633327 0.0251664 0.0208023 0.00035 -0.44782 9.02446 6.98872 
2952785 -0.000257797 -0.0212745 0.0320788 0.00025 -0.0316827 -6.32875 9.77468 
2941671 -0.000410014 -0.0210033 0.081729 0.00025 -0.998241 -2.87515 10.5127 
2936460 -2.64354e-06 -0.048255 0.0820806 0.00025 0.575874 -6.07838 7.82245 
2956540 -0.000319397 0.0511122 0.0798348 0.00025 -0.254739 6.55425 8.26254 
2943277 -0.000305697 0.0100037 -0.0066079 0.00035 8.75345 6.06519 -4.61966 