ITEM: TIMESTEP
955820
ITEM: NUMBER OF ATOMS
32268
ITEM: BOX BOUNDS ff ff ff
-0.705 0.705
-0.1016 0.1016
-0.11 0.11
ITEM: ATOMS id x y z radius vx vy vz 
2946112 -0.123104 -0.0106181 0.00707479 0.00045 9.83758 0.739211 -0.549793 
2946175 -0.121136 -0.0105866 0.00694938 0.00035 10.201 0.833041 -0.552621 
2949221 -0.117897 -0.0103788 0.00685858 0.00035 10.4918 0.822401 -0.675315 
2952373 -0.124048 -0.0114241 0.00937211 0.00025 9.87629 0.771849 -0.815824 
2956118 -0.138005 -0.0124249 0.00988207 0.00025 8.34066 0.721782 -0.891071 
2949779 -0.140318 -0.00939234 0.0105197 0.00025 8.08111 0.415071 -0.588086 
2951877 -0.112294 0.00156122 0.0201418 0.00055 10.8723 -0.133746 -1.83408 
2946572 -0.000345754 0.0713185 -0.109049 0.00025 -0.317221 4.8034 -9.48088 
2944296 -0.000122852 0.0775738 -0.107338 0.00025 -0.0941559 5.30638 -8.85595 
2943516 -0.00291354 0.0963008 -0.108204 0.00025 -0.576753 7.51224 -8.84998 
2941485 -0.00327366 0.0727372 -0.107405 0.00025 -0.658579 5.97356 -10.2275 
2944345 -0.000326359 0.0807859 -0.106946 0.00025 -0.191545 5.82333 -8.96989 
2937665 -0.00277777 0.0827533 -0.106595 0.00025 -0.596669 6.06802 -8.8843 
2938267 -0.00138988 0.0843492 -0.106833 0.00025 -0.310118 6.92278 -9.51192 
2923533 -0.000268975 0.083807 -0.106805 0.00025 -0.129367 6.60348 -9.28336 
2935853 -0.00350586 -0.000622687 -0.107258 0.00025 -1.19379 0.710837 -11.3275 
2919402 -0.00332347 0.0687847 -0.107181 0.00025 -0.718056 5.61801 -10.1931 
2932257 -0.0070784 0.0782916 -0.106169 0.00025 -1.28472 6.66624 -9.97819 
2937719 -0.00697613 0.0820834 -0.106825 0.00025 -1.12496 7.04315 -9.91175 
2932534 -0.000694079 0.0837403 -0.106515 0.00025 -0.327499 6.64618 -9.43041 
2938215 -0.00145876 0.0839828 -0.105747 0.00025 -0.552924 6.44555 -9.08621 
2939976 -0.00304713 -0.0205999 -0.106574 0.00025 -1.02971 -2.55088 -11.4415 
2940146 -0.00257734 -0.017068 -0.105765 0.00025 -0.975342 -1.99543 -11.0924 
2932210 -0.00237918 0.0823195 -0.104794 0.00025 -0.519376 6.99658 -9.65429 
2927375 -0.000623626 0.0818236 -0.104783 0.00035 -0.22699 6.86398 -9.68704 
2949919 -0.00185416 0.0831002 -0.104218 0.00025 -0.427685 6.16839 -8.70588 
2944421 -0.00164885 0.0841084 -0.104515 0.00025 -0.5537 6.70422 -9.24028 
2933233 -0.00112687 0.0841465 -0.105261 0.00035 -0.344841 6.7688 -9.21674 
2920844 -0.000590154 0.0844581 -0.105243 0.00025 -0.239842 6.64054 -9.18428 
2944025 -0.000678274 0.0852085 -0.105148 0.00025 -0.250167 6.85434 -8.98017 
2941532 -0.00451508 0.0883026 -0.105338 0.00025 -0.747397 7.65085 -9.62521 
2951281 -0.00785561 0.0779281 -0.103435 0.00025 -1.27793 6.50207 -9.53988 
2950991 -0.00178552 0.0875574 -0.104005 0.00025 -0.37343 7.53225 -9.43091 
2935023 -0.00280083 0.0873932 -0.103465 0.00025 -0.607429 6.64345 -8.62932 
2944005 -0.00122189 0.0883667 -0.103857 0.00025 -0.259548 7.5312 -9.36631 
2957270 -0.0014388 0.000583797 -0.103636 0.00025 -0.728822 0.814743 -11.0753 
2924373 -0.00246023 0.0853161 -0.102455 0.00035 -0.580152 7.42676 -9.33912 
2931388 -0.00566629 0.0883556 -0.101607 0.00025 -0.971235 6.73679 -8.45753 
2943476 -0.00227877 0.0902812 -0.102869 0.00025 -0.418825 7.72206 -9.2408 
2941394 -0.001206 0.0902044 -0.102657 0.00025 -0.264518 7.59645 -9.14648 
2934836 -0.000618679 -0.0972745 -0.100777 0.00025 -0.728962 -6.80556 -8.35254 
2945173 -0.00146233 -0.0217923 -0.102595 0.00025 -0.733319 -2.84132 -10.9042 
2952491 -0.00182323 -0.0165505 -0.103137 0.00025 -0.946351 -1.8093 -11.3791 
2945237 -0.00536422 0.0632614 -0.10235 0.00025 -1.33702 4.93587 -9.72289 
2943073 -0.00967746 0.0863368 -0.101055 0.00025 -1.54971 7.53317 -9.27693 
2931977 -0.0103918 0.089441 -0.101169 0.00025 -1.64341 7.90927 -9.24587 
2934767 -0.0072012 0.0920673 -0.100887 0.00025 -1.15155 8.1337 -9.17149 
2926194 -0.000567002 0.0914538 -0.10169 0.00025 -0.169637 7.72376 -8.9556 
2938188 -0.000858531 0.091653 -0.101133 0.00025 -0.330733 7.70085 -8.95364 
2938108 -0.00606499 0.0758367 -0.100738 0.00025 -1.07346 6.30447 -9.29473 
2950864 -0.00326631 -0.0142537 -0.0999712 0.00025 -1.09324 -1.5015 -10.4691 
2942646 -0.0063479 0.0736314 -0.0991527 0.00025 -1.13262 6.17996 -9.25521 
2944552 -0.00567748 0.0813898 -0.0992656 0.00025 -1.08797 7.10989 -9.18922 
2931880 -0.00098833 0.0889311 -0.0993596 0.00025 -0.433732 7.12906 -8.67095 
2933956 -0.000676811 0.09519 -0.0986829 0.00025 -0.194009 8.25727 -8.75827 
2947800 -0.00178452 -0.0133673 -0.0992696 0.00025 -0.738317 -1.38835 -10.38 
2951657 -0.00151504 -0.0107545 -0.0989318 0.00025 -0.713674 -0.854458 -10.4089 
2939020 -0.00627613 0.079348 -0.0983672 0.00035 -1.23746 6.88041 -9.09663 
2941367 -0.00131571 0.0803802 -0.0985197 0.00025 -0.476418 6.82748 -9.04599 
2934539 -0.000972205 0.0861256 -0.0976972 0.00035 -0.388417 7.54527 -8.95724 
2951340 -0.00727038 0.0870668 -0.0979117 0.00025 -1.2777 7.67058 -8.95919 
2944095 -0.000794124 0.0873511 -0.0971789 0.00025 -0.389919 7.26949 -8.45592 
2940549 -0.00645849 0.0890383 -0.0982528 0.00025 -1.08234 7.83087 -8.97279 
2925491 -0.00160933 -0.0237284 -0.0983788 0.00025 -0.577206 -2.90423 -10.8343 
2946604 -0.00576213 0.0766701 -0.0971631 0.00025 -1.15446 6.43469 -8.997 
2927350 -0.00123743 0.0801915 -0.097337 0.00035 -0.568902 7.14279 -9.14416 
2942802 -0.00795856 0.0875782 -0.0964481 0.00025 -1.3527 7.69769 -8.8351 
2953709 -0.00134002 -0.0157382 -0.096872 0.00025 -0.652019 -1.71995 -9.98037 
2932363 -0.000453956 -0.013024 -0.0964916 0.00025 -0.380554 -1.21958 -10.1616 
2918506 -0.00512749 0.0857666 -0.0954333 0.00035 -1.10464 7.73591 -8.8869 
2943468 -0.0135677 0.0877732 -0.0956129 0.00025 -2.16471 7.8272 -8.82962 
2929286 -0.00547708 0.0971393 -0.0957636 0.00025 -0.915648 8.64271 -8.58081 
2912656 -0.0027519 -0.0972517 -0.093706 0.00045 -0.132262 -8.65014 -8.48495 
2921604 -0.00441009 0.0863091 -0.0927863 0.00035 -0.959763 7.83301 -8.70801 
2946961 -0.00404074 0.098719 -0.093172 0.00025 -0.735044 8.83997 -8.28637 
2938969 -0.00195606 0.00855755 -0.0951126 0.00035 -0.0380018 1.3066 -12.3743 
2925845 -0.00179466 0.0835311 -0.0915838 0.00035 -0.643646 7.48572 -8.46071 
2933036 -0.00531232 0.00929201 -0.0945101 0.00045 -0.636589 1.30187 -12.2704 
2924266 -0.00389977 0.0103407 -0.0935768 0.00045 -0.311699 1.42296 -12.2592 
2942092 -0.00297275 0.0727436 -0.0905749 0.00025 -0.689229 6.08246 -8.21716 
2923070 -0.00646544 0.0885384 -0.0911711 0.00035 -1.33714 8.06434 -8.49411 
2945850 -0.0128922 0.090309 -0.0912171 0.00025 -2.02807 8.05059 -8.22533 
2943139 -0.00827422 0.097834 -0.0903001 0.00025 -1.41967 8.92518 -8.06652 
2950505 -0.00110709 0.00891292 -0.0925845 0.00035 0.191365 1.36768 -12.2282 
2930126 -0.00225158 0.0135153 -0.0923587 0.00045 -0.0703256 1.84362 -12.1947 
2925964 -0.00791036 0.0918387 -0.0898414 0.00035 -1.47333 8.03178 -7.94263 
2921362 -0.00607746 -0.00144287 -0.0917801 0.00045 -0.92127 -0.0533525 -12.0835 
2921381 -0.00206024 0.00713116 -0.0916267 0.00045 -0.0213738 1.02022 -12.2388 
2930117 -0.00513843 0.0233884 -0.0910825 0.00045 -0.716703 2.99146 -11.9108 
2941734 -0.00117743 0.00643158 -0.0905073 0.00045 0.175577 1.09139 -12.2605 
2930290 -0.00176238 0.0849714 -0.0876149 0.00035 -0.632773 7.71974 -8.09007 
2927506 -0.00865467 0.0941654 -0.086587 0.00025 -1.45496 8.53145 -7.61732 
2924287 -0.000827913 -0.011583 -0.0894792 0.00045 -0.0140422 -1.56919 -12.3058 
2935883 -0.00590298 0.000255255 -0.0897432 0.00055 -0.726493 0.180314 -12.0029 
2938999 -1.8251e-05 0.0158944 -0.089609 0.00035 1.21612 2.18347 -11.7422 
2925855 -0.00141468 0.100318 -0.0862055 0.00035 -0.445268 9.21889 -7.5499 
2959045 -0.000854481 -0.0182762 -0.0877066 0.00025 -0.0469228 -2.56461 -11.6456 
2944674 -0.00171097 0.0221786 -0.0879977 0.00035 0.0503738 2.84979 -11.5921 
2941995 -0.00174283 0.0720238 -0.0855032 0.00025 -0.559551 6.25313 -8.18106 
2948012 -0.00690007 0.0848763 -0.0852898 0.00025 -1.33088 7.74872 -7.84897 
2949924 -0.0125671 0.0915304 -0.0848267 0.00025 -2.06864 8.24325 -7.5292 
2943163 -0.11109 -0.00147482 0.0198508 0.00045 10.6364 -0.328922 -2.0149 
2941814 -0.00160111 0.0280171 -0.0866915 0.00035 0.0213097 3.6736 -11.6033 
2915525 -0.00656752 0.000319251 -0.0849138 0.00055 -0.835038 0.185873 -11.5214 
2936996 -0.00222996 0.0829708 -0.081008 0.00025 -0.693156 7.64391 -7.47321 
2921358 -0.00146886 0.0306666 -0.0831683 0.00045 0.118558 4.0722 -11.1835 
2927394 -0.000430668 0.0848003 -0.0808056 0.00035 -0.444718 8.12358 -7.64627 
2931519 -0.000262137 0.0314971 -0.0809247 0.00055 0.265832 4.42081 -11.0944 
2948422 -0.00171653 0.0863807 -0.0778876 0.00025 -0.525435 8.1513 -6.97988 
2932136 -0.00366994 0.0891927 -0.0759435 0.00025 -0.93761 8.43794 -6.72998 
2948023 -0.00123869 0.0619282 -0.0769659 0.00025 -0.851477 6.2312 -8.74776 
2919897 -0.00246624 0.0690783 -0.0782193 0.00045 -0.306453 8.53798 -9.96075 
2949653 -0.000357549 0.0706346 -0.0746491 0.00025 -0.300817 7.34223 -8.04404 
2944884 -0.00095898 0.0673338 -0.0737879 0.00025 -0.704751 7.2255 -8.34369 
2944271 -0.00123385 0.0691182 -0.0744156 0.00025 -0.525764 7.18038 -7.96005 
2941968 -0.00102513 0.0702857 -0.0747242 0.00035 -0.0365046 8.71783 -9.49516 
2951528 -0.000779477 -0.0104367 -0.0749192 0.00025 -0.948607 -1.27545 -10.161 
2939013 -0.000549241 0.0712611 -0.074125 0.00035 0.0544091 8.97227 -9.60273 
2935978 -9.15253e-05 0.0661969 -0.0730023 0.00035 -0.0493438 8.00412 -8.95266 
2942609 -0.000765314 0.0701257 -0.072236 0.00025 -0.647779 7.81196 -8.17176 
2959209 -0.00193285 0.0598567 -0.0712792 0.00045 -0.174858 7.73586 -9.47203 
2921345 -0.00853773 0.0641577 -0.0715352 0.00055 -1.32775 8.23305 -9.42188 
2953366 -0.0044575 0.0623666 -0.0705627 0.00045 -0.560039 8.14719 -9.37574 
2948075 -0.000178194 0.0617928 -0.070351 0.00025 0.278688 7.94919 -9.24051 
2950688 -0.00164407 0.0628551 -0.0696218 0.00035 -0.116909 7.89834 -9.05475 
2933033 -0.00599412 0.0661111 -0.0690982 0.00045 -0.945209 8.50522 -9.08504 
2921377 -0.000329828 0.0749715 -0.0684923 0.00045 0.0262054 9.16176 -8.415 
2934422 -0.00300801 0.0642575 -0.0685103 0.00055 -0.336331 8.46554 -9.29 
2937376 -0.00284852 0.0733906 -0.0682639 0.00045 -0.384776 9.51266 -8.90211 
2943690 -0.00209035 -0.0906318 -0.0650358 0.00025 -1.73731 -9.19824 -6.31045 
2930897 -0.00209252 0.0957597 -0.0641947 0.00025 -1.72174 7.71537 -6.60038 
2921376 -0.00215254 0.068068 -0.0636128 0.00045 -0.221489 8.96437 -8.48361 
2939567 -0.00127608 0.0933861 -0.0617419 0.00025 -1.35333 7.01396 -5.99784 
2947247 -0.00189882 0.0598001 -0.0607496 0.00025 -0.768944 8.03578 -8.0321 
2922787 -0.00147642 0.0655387 -0.0607458 0.00055 -0.182035 9.02149 -8.41472 
2939492 -0.000273592 0.0661125 -0.0594055 0.00025 -0.293588 9.42174 -7.9686 
2922014 -0.00192408 0.0526102 -0.0578134 0.00025 -1.37959 7.0629 -8.5815 
2932965 -0.000236373 0.0816251 -0.0526413 0.00055 0.715135 10.1572 -6.57273 
2915520 -0.00209528 0.0876722 -0.0526847 0.00055 -0.0719643 10.5529 -6.41718 
2927818 -0.00135077 0.0525588 -0.0519103 0.00025 -1.12081 7.17435 -7.17945 
2965063 2.65683e-06 0.0286293 -0.051494 0.00035 0.8318 5.99868 -11.153 
2924407 -0.000141372 0.0276395 -0.0500389 0.00035 0.812691 5.82258 -11.1649 
2932981 -0.0011222 0.00319289 -0.0491826 0.00055 -0.185558 1.0027 -12.5205 
2946864 -0.00201278 0.0470325 -0.043992 0.00025 -2.20904 8.35063 -7.49857 
2945153 -0.000240473 -0.100968 -0.0350792 0.00025 0.247759 -10.9112 -4.06697 
2935878 -0.000381548 0.033538 -0.0383112 0.00055 -0.150902 7.93208 -9.3825 
2925648 -0.000187804 0.0743436 -0.0344777 0.00025 0.524108 10.9545 -4.61283 
2947529 -1.55719e-05 0.0371131 -0.037474 0.00045 0.226488 8.5342 -9.10953 
2945578 -0.000484716 0.0708755 -0.032968 0.00025 -0.289152 10.1418 -4.45337 
2956231 -0.000178735 0.0340464 -0.0318427 0.00055 0.0387511 8.9118 -8.57361 
2952006 -5.19366e-05 0.0447146 -0.028547 0.00035 0.201998 10.1789 -6.62193 
2957174 -0.000194039 0.0736384 -0.0255335 0.00025 0.177792 11.0485 -3.47485 
2918447 -0.00103555 -0.0473309 -0.0263201 0.00045 0.117531 -10.4327 -6.11495 
2950580 -0.000289552 0.0466462 -0.0259864 0.00035 0.436467 10.6291 -6.12599 
2950607 -5.9184e-06 0.048881 -0.0254732 0.00035 0.906329 10.4329 -5.84493 
2918437 -0.000495955 0.0211122 -0.0268146 0.00055 -0.398835 7.6206 -10.1518 
2938479 -0.00186523 -0.0738319 -0.0176087 0.00025 -2.06555 -10.9277 -3.18533 
2961030 -2.91513e-05 0.0385207 -0.0206287 0.00025 0.29807 10.6464 -5.99854 
2938798 -0.00178621 -0.0851902 -0.0164266 0.00045 -0.136537 -11.5187 -2.31023 
2933906 -0.00125611 -0.067885 -0.0168821 0.00025 -1.41171 -9.45053 -3.21841 
2924261 -0.000130984 -0.0407327 -0.0183929 0.00045 0.163175 -11.0226 -5.52934 
2937661 -0.000199543 0.0189639 -0.022209 0.00025 0.0211953 7.4367 -9.8957 
2956189 -0.00145949 -0.0677998 -0.0163618 0.00025 -1.3724 -9.18057 -3.16916 
2933230 -0.000247898 0.0205869 -0.020912 0.00035 -0.0562037 8.90492 -9.74913 
2951903 -0.00127825 0.0504849 -0.0168489 0.00045 0.268464 10.8561 -3.87563 
2954821 -0.000524198 0.0504734 -0.0152828 0.00045 0.573547 11.3062 -3.41973 
2924258 -0.000106019 0.0559712 -0.0144155 0.00045 0.37854 11.293 -2.78173 
2943199 -0.000816342 0.0569669 -0.0147914 0.00045 0.483909 11.4235 -3.0872 
2923897 -0.00153424 -0.0719113 -0.013049 0.00025 -1.58024 -10.2316 -2.30474 
2940300 -0.000118895 -0.0526152 -0.0139756 0.00045 0.666507 -11.7484 -3.46931 
2944648 -0.000377694 0.025461 -0.0177039 0.00045 -0.137978 10.6746 -7.45089 
2967464 -0.0017084 -0.0758104 -0.0123407 0.00025 -1.72355 -11.4037 -2.26253 
2968388 -0.000142985 -0.027483 -0.0150272 0.00025 0.0854168 -10.279 -6.23003 
2952067 -0.11269 0.0105511 0.00957482 0.00035 10.9713 -0.848298 -1.07871 
2943160 -0.111534 0.0100885 0.00919784 0.00045 11.1052 -0.75294 -1.08033 
2942762 -0.000861258 0.0584606 0.0946905 0.00025 -1.07809 5.7539 8.53491 
2950528 -0.000144323 0.0513554 -0.0123317 0.00035 1.14058 11.2467 -2.80642 
2944653 -0.000872149 0.0528237 -0.0128084 0.00045 0.501641 11.3173 -2.88073 
2935924 -0.000150994 -0.0492855 -0.0107255 0.00045 0.245997 -11.5965 -2.78679 
2934463 -0.109572 0.0101303 0.0108176 0.00045 11.5017 -0.85192 -1.05934 
2947243 -0.00144191 -0.00225828 -0.0120141 0.00025 9.54022 -1.09859 -7.83349 
2929756 -0.00131836 -0.00085746 -0.0120765 0.00025 9.39745 -0.910577 -7.93403 
2958099 -0.000719394 0.000371269 -0.0122841 0.00025 8.57213 0.836975 -8.26108 
2934689 -0.000738798 0.00121624 -0.012053 0.00035 8.92947 0.942465 -8.25747 
2961746 4.99291e-05 0.00113647 -0.012817 0.00025 7.8728 0.814701 -8.81187 
2935035 -0.000176522 0.0646058 0.100202 0.00025 -0.326396 5.84438 7.56136 
2940369 -0.00023023 -0.022234 0.0955993 0.00035 -0.250406 -2.83641 9.70713 
2923283 -0.000850103 -0.0224352 0.0917405 0.00025 -0.493086 -3.059 9.64387 
2931543 1.94762e-05 0.00224872 -0.0116906 0.00045 9.52604 0.859603 -7.75971 
2931106 -0.000321766 0.0389396 0.0920783 0.00025 -0.543015 3.86687 9.33904 
2949914 -0.000107268 0.000323939 0.0918398 0.00025 0.32353 -1.0036 9.80954 
2940455 -0.109789 -0.0101372 0.00773237 0.00035 11.4027 0.860391 -0.893619 
2937328 -0.109834 0.0101399 0.00978988 0.00055 11.2672 -0.813094 -1.02758 
2953617 -0.000610826 -0.0237837 0.0883097 0.00025 -0.995845 -2.64735 10.3545 
2931161 -0.000107834 0.0879913 0.0812725 0.00025 -0.196842 7.35378 5.69467 
2940728 -0.000134594 0.0478014 0.079192 0.00025 -0.0509304 6.33627 7.90116 
2951793 -0.00085888 -0.0454129 0.0830305 0.00025 -0.944469 -6.83263 8.46949 
2920248 -0.000421032 0.0215379 -0.0137332 0.00025 -0.15408 9.44212 -6.49397 
2959862 -7.11634e-05 0.0512453 -0.0106025 0.00025 0.639487 10.7907 -2.58612 
2942644 -0.000300833 -0.0371967 0.074225 0.00025 -0.832608 -5.81888 8.91122 
2937335 -0.109154 -7.97018e-05 -0.000104908 0.00055 11.7795 0.201401 -0.461317 
2946135 -0.10932 -0.000916665 -0.000663725 0.00035 11.6869 -0.00169809 -0.0965271 
2947467 -0.111726 -0.0100236 0.00669941 0.00025 11.6658 0.804756 -0.523511 
2934418 -0.113865 -0.0104337 0.00944618 0.00055 10.532 0.808824 -0.791445 
2954567 -0.000106278 -0.0196903 0.0739475 0.00025 0.581491 -3.0703 9.47324 
2956718 -0.000327878 -0.0159213 0.0711488 0.00025 -0.072428 -3.59688 9.18075 
2949693 -0.00787983 -0.00217155 -0.00869568 0.00025 15.6599 -0.00693098 -2.52758 
2954390 -0.000268931 -0.0115804 0.066485 0.00025 -0.301026 -2.53 9.84775 
2935127 -0.00711307 0.000141325 -0.00886784 0.00025 15.2444 0.0753666 -2.43297 
2919896 -0.00159215 0.00111449 -0.0107684 0.00045 10.3111 0.773638 -6.73638 
2940553 -0.00100086 0.000574302 -0.0118304 0.00025 8.65514 0.849371 -7.89057 
2952332 -0.000690133 0.000719994 -0.0113128 0.00025 9.1267 0.39237 -8.10823 
2947399 -0.000365886 0.0010633 -0.0115846 0.00025 8.84017 0.787528 -8.08965 
2940267 -0.000345492 0.0011271 -0.010486 0.00045 9.58385 0.691988 -7.18672 
2952095 -3.36234e-05 0.000385809 -0.0117271 0.00035 8.42146 0.610564 -8.2283 
2925540 -0.000792044 0.0578197 0.0938387 0.00025 -1.08998 5.40772 8.63548 
2920000 -0.00185556 0.00191041 -0.0105672 0.00035 9.62056 1.01454 -6.75728 
2946164 -0.000835936 0.00181088 -0.010664 0.00035 9.84802 0.797828 -7.60141 
2939780 -0.000332848 0.0770261 0.0619784 0.00025 -0.117849 6.90973 5.47508 
2969983 -0.000368738 -0.00766307 0.044508 0.00025 -0.344757 -2.09164 10.8533 
2924115 -8.98239e-06 0.0459803 -0.00952656 0.00025 0.688796 11.0166 -2.60022 
2924410 -0.000637031 0.0488339 -0.0102116 0.00035 0.965178 11.2689 -2.8837 
2957607 -0.000138966 0.0484724 -0.010347 0.00025 1.1477 10.7554 -2.79351 
2920045 -0.000406657 -0.0517762 -0.00787676 0.00035 0.644328 -11.8874 -2.27435 
2949864 -0.000167954 -0.0907454 0.0380168 0.00025 -0.0180909 -9.17337 4.14306 
2950474 -0.00130895 -0.0467894 -0.00883819 0.00045 -0.267493 -11.8989 -2.43142 
2960468 -0.000278714 -0.0441259 -0.00817434 0.00025 0.585825 -11.5371 -2.37193 
2922799 -0.000445159 -0.0417451 -0.00929168 0.00055 -0.165048 -11.8934 -2.83605 
2940234 -0.110401 0.00993647 0.00887341 0.00055 11.2613 -1.03172 -0.876635 
2952239 -0.00827359 -0.00279099 -0.00882661 0.00025 16.2353 -0.0949823 -2.30689 
2950216 -0.002878 -0.0037176 -0.00880684 0.00025 11.8614 -2.09941 -5.40386 
2920819 -0.00027344 -0.016336 0.0381964 0.00025 -0.11015 -4.68124 10.2296 
2952920 -0.00816513 -0.00196198 -0.0082733 0.00025 15.7237 -0.389476 -3.32338 
2949262 -0.000220664 -0.0236554 0.0941957 0.00025 0.324553 -2.93641 8.85793 
2947088 -0.000765245 -0.0004745 -0.0102922 0.00025 8.76744 -0.79343 -7.45261 
2935404 -0.0012316 0.00094244 -0.0102061 0.00025 10.3481 0.517855 -6.48368 
2928813 -0.00746646 0.00122128 -0.00834923 0.00035 15.4825 0.301473 -2.68044 
2955046 -0.00106525 0.002479 -0.00954553 0.00035 10.0164 0.784593 -6.37199 
2951944 -0.000291828 0.00223673 -0.0105912 0.00035 9.37867 0.909794 -7.84639 
2940891 -0.000404802 -0.0176999 0.093055 0.00025 -0.251279 -2.55739 10.1111 
2938553 -0.000177659 0.0188015 0.0891188 0.00025 -0.23264 2.75418 10.3052 
2950554 -0.000272899 0.0477521 -0.00935805 0.00035 0.478012 11.3528 -2.71069 
2936049 -0.000760597 0.0481247 -0.00902501 0.00035 0.675268 11.4574 -2.55908 
2947746 -9.11534e-07 0.0515898 -0.00911568 0.00035 0.616856 11.3413 -2.43697 
2952334 -0.110321 -0.00802701 0.00536657 0.00025 11.5745 0.779515 -0.603845 
2938950 -0.000605095 -0.0200884 0.0834612 0.00035 -1.02205 -3.10657 10.4432 
2939723 -0.000598409 -0.0443295 0.0757002 0.00025 -0.697068 -5.61981 9.04291 
2927403 -0.000136812 -0.0503873 -0.00755902 0.00035 0.955879 -11.7691 -2.29537 
2962494 -3.03963e-05 -0.0471006 -0.00760282 0.00025 1.30951 -12.0051 -2.28086 
2940021 -0.000712535 -0.0422107 0.0735994 0.00025 -0.940034 -5.6525 8.84697 
2955092 -1.43152e-05 -0.0440387 -0.00653906 0.00025 0.364892 -11.5995 -1.75673 
2971248 -8.91844e-07 -0.0431268 -0.00771255 0.00025 0.699288 -11.1023 -2.21642 
2970094 -0.000135114 -0.0394313 -0.0068289 0.00025 -0.0582176 -10.9924 -2.26706 
2972187 -0.000118982 -0.0402595 -0.00804528 0.00025 0.106663 -11.2602 -2.63969 
2933640 -0.000199917 -0.039029 -0.00751624 0.00025 0.485455 -11.0854 -2.47421 
2935668 -0.00022047 -0.02587 -0.00857125 0.00025 0.302901 -10.5312 -4.24116 
2964250 -0.000174386 0.0329606 0.0296825 0.00025 -0.0263779 8.58094 7.3907 
2933659 -0.000434053 0.0354587 0.0249229 0.00025 0.0172457 9.61332 6.6818 
2931238 -0.000628806 -0.0417824 0.0720617 0.00025 -0.694584 -5.42477 8.90483 
2941110 -0.0213093 -0.00243075 -0.00742503 0.00025 16.3474 0.305823 -1.6798 
2931511 -0.0209994 -0.00252304 -0.00669497 0.00055 16.3442 0.108191 -1.69614 
2956033 -0.0183878 -0.00305198 -0.00615871 0.00025 16.616 -0.0492502 -1.29006 
2952297 -0.0209442 -0.00151273 -0.00692728 0.00025 16.6038 0.0829036 -1.80412 
2952338 -0.0199514 -0.00201311 -0.00736354 0.00025 16.7077 -0.00312271 -2.16035 
2952984 -0.0196595 -0.00157302 -0.00681545 0.00025 16.8002 -0.00158726 -1.97298 
2941498 -0.0193988 -0.00117022 -0.00699244 0.00025 16.8623 0.093856 -1.75357 
2920633 -0.0154181 -0.00190099 -0.00759335 0.00025 16.6676 -0.0504466 -2.5307 
2934541 -0.0147761 -0.00169925 -0.00772662 0.00035 16.6334 -0.155819 -3.05274 
2928882 -0.00355344 -0.00256334 -0.00783153 0.00035 13.3705 -0.908349 -4.22852 
2925839 -0.00304298 -0.00272689 -0.00737239 0.00035 13.3263 -1.31845 -4.36296 
2951919 -0.00154277 -0.00202913 -0.00855494 0.00045 11.6602 -0.875697 -6.16675 
2925748 -0.0222493 -0.000677809 -0.00686902 0.00045 16.4073 0.0461311 -1.36533 
2925707 -0.0103276 -0.000732189 -0.00579953 0.00055 16.0983 -0.0483681 -1.3582 
2925753 -0.00651009 -0.00085184 -0.00714304 0.00045 15.5542 -0.23714 -2.75456 
2929326 -0.00455539 -0.000366389 -0.00620002 0.00025 13.2957 -0.582712 -3.01813 
2931746 -0.00186237 -0.00109833 -0.00855649 0.00035 11.3475 -0.805444 -6.07877 
2936995 -1.89439e-05 -0.0621621 0.101674 0.00025 -0.0300101 -6.09147 8.41404 
2945999 -0.000496908 0.0612979 0.0988069 0.00025 -0.885921 5.31 7.97173 
2955774 -0.0263233 0.000910911 -0.00644974 0.00025 16.4989 0.108903 -1.87963 
2948076 -0.000648582 0.0266715 0.0241837 0.00025 -0.631664 8.64693 7.49151 
2950364 -0.0331996 0.00137592 -0.00643111 0.00025 16.5404 -0.021743 -1.31838 
2928820 -0.0187757 0.00158017 -0.00692424 0.00035 16.8484 0.364014 -1.46644 
2937399 -0.00930497 0.00131245 -0.00736338 0.00045 15.8889 0.26065 -2.50966 
2925771 -0.000550825 0.0140963 0.0143833 0.00035 -0.56767 8.02954 7.60464 
2949454 -0.000913078 0.00416847 0.0273089 0.00025 -0.386134 2.222 11.3636 
2930054 -5.48091e-05 0.0112648 0.0630984 0.00055 -0.0662434 1.96556 10.8463 
2951306 -0.000379363 0.026896 0.0223044 0.00025 -0.329286 9.16201 7.27039 
2954936 3.14066e-05 0.00847828 -0.00923056 0.00035 6.5256 5.23007 -6.83876 
2946208 -0.113783 -0.00970621 0.00567245 0.00035 11.0876 0.747057 -0.508047 
2920644 -0.000245473 0.0212746 0.0998155 0.00025 -0.388999 2.33767 9.79564 
2948018 -0.000552819 -0.0836822 0.0555662 0.00025 -0.664545 -8.55647 4.01784 
2921401 -0.00177037 0.047458 -0.00709892 0.00045 0.366694 10.9664 -2.13466 
2923340 -0.000162804 0.0778604 0.108175 0.00025 -0.227796 5.499 8.43705 
2956307 -0.000214575 -0.0462281 -0.0062707 0.00035 0.400249 -11.7806 -1.87554 
2932967 -0.00028398 -0.0453343 -0.0062563 0.00055 -0.148198 -12.0245 -1.8495 
2965176 -3.62215e-05 -0.0433784 -0.00605583 0.00035 0.270848 -11.5249 -1.94329 
2919131 -0.000135512 -0.040851 -0.00638399 0.00025 0.119773 -11.8014 -2.17195 
2940243 -0.113267 -0.00916838 0.00517103 0.00055 10.9865 0.697072 -0.674896 
2927682 -0.000396485 0.0310762 0.0264933 0.00025 -0.557402 8.87185 7.36348 
2927207 -0.00126245 -0.00946477 0.0218185 0.00045 -1.7546 -4.62349 9.46903 
2921917 -0.000599052 0.0584265 0.0941381 0.00025 -0.964837 5.56461 8.46544 
2956049 -0.000505195 0.00443214 0.0215542 0.00025 -0.354618 2.06464 10.8189 
2959125 -0.015308 -0.0059017 -0.00577403 0.00025 16.6605 -0.813289 -2.29318 
2933762 -0.000689234 0.057689 0.0933575 0.00025 -1.1081 5.38601 8.59866 
2918841 -0.000796854 0.057657 0.0921209 0.00025 -1.28989 5.26215 8.48471 
2945420 -0.000158656 0.050102 0.0454641 0.00025 -0.0960621 8.01604 6.92984 
2935056 -0.0186108 -0.00383233 -0.00607224 0.00025 16.6343 0.0241957 -1.41808 
2931590 -0.0156831 -0.00435633 -0.00652185 0.00035 16.6072 -0.0315968 -2.55965 
2952352 -0.0187632 -0.00284977 -0.00585075 0.00025 16.5904 -0.135101 -1.4362 
2958318 -0.019606 -0.00301427 -0.00535841 0.00025 16.7265 -0.0466589 -1.61018 
2934531 -0.0183086 -0.0025814 -0.00546158 0.00035 16.4964 -0.042277 -1.22138 
2947494 -0.0178895 -0.00261195 -0.00503418 0.00025 16.6148 -0.0407877 -1.32706 
2944343 -0.01658 -0.00288711 -0.00503559 0.00025 16.6417 0.224547 -1.39392 
2956110 -0.0116456 -0.00217464 -0.00492953 0.00025 16.6705 0.293693 -0.696793 
2944273 -0.00769699 -0.00409533 -0.00630046 0.00025 15.801 -1.22785 -3.46259 
2949179 -0.0278288 -0.00168928 -0.00526296 0.00035 16.4039 -0.0523439 -1.72242 
2949576 -0.0228572 -0.00195326 -0.00540301 0.00025 16.6741 0.0967646 -1.56938 
2943896 -0.020401 -0.0018531 -0.00643634 0.00025 16.6905 0.0769155 -2.0271 
2934889 -0.019094 -0.00180367 -0.00566254 0.00025 16.7167 -0.0241486 -1.51595 
2925887 -0.0186917 -0.0016022 -0.00522804 0.00035 16.648 0.00124884 -1.32228 
2952448 -0.0180196 -0.00180724 -0.0052178 0.00025 16.6225 0.0792458 -0.971366 
2952512 -0.00906932 -0.00145446 -0.0064849 0.00025 15.8627 -0.120884 -2.82218 
2950044 -0.00510242 -0.00143893 -0.00479088 0.00025 13.5927 -0.454258 -1.67864 
2922829 -0.00490248 -0.00160813 -0.00543602 0.00045 14.0583 -0.567331 -1.5266 
2917166 -0.00434894 -0.00219813 -0.00564517 0.00035 12.971 -0.554339 -2.23304 
2935400 -0.000382124 0.025451 0.0159009 0.00025 -0.485715 10.3698 6.2774 
2929399 -0.000243256 0.0625496 0.0992645 0.00025 -0.428113 4.97829 7.34894 
2956188 -0.0387394 -0.000180217 -0.00525458 0.00025 16.6513 -0.148249 -1.61354 
2943347 -0.0341597 -0.000269869 -0.00545985 0.00035 16.5989 -0.0332035 -1.271 
2949428 -0.032215 -0.000359841 -0.0051289 0.00025 16.6706 -0.230601 -1.56712 
2937358 -0.0291237 -0.000701281 -0.00530839 0.00045 16.4831 0.240103 -0.971171 
2956100 -0.0263547 -0.000913313 -0.00512455 0.00025 16.3935 -0.0159586 -1.35743 
2950280 -0.0214175 -0.000794698 -0.00627024 0.00025 16.9257 0.181782 -2.04155 
2925694 -0.0201256 -0.000845843 -0.00606963 0.00055 16.4984 0.0204055 -1.92301 
2944465 -0.014328 -0.000766326 -0.00640128 0.00025 17.1621 -0.115163 -3.30155 
2935027 -0.00293109 -0.00108799 -0.0074271 0.00025 12.4271 -0.517588 -5.37384 
2946312 -0.000551833 -0.0153565 0.0902268 0.00035 -0.687498 -1.98639 10.2901 
2940413 -0.0341636 0.00090339 -0.00543631 0.00035 16.5348 -0.100615 -1.62758 
2946965 -0.0327381 0.00109881 -0.00647279 0.00025 16.8308 0.0810578 -2.03083 
2944009 -0.0286955 -7.89103e-05 -0.00591384 0.00025 16.7047 -0.121816 -1.27655 
2952933 -0.0290107 0.000471648 -0.00509662 0.00025 16.4099 0.082994 -1.12839 
2935046 -0.0286006 0.000326067 -0.00620979 0.00025 16.646 -0.279196 -1.69755 
2947062 -0.0281815 3.30507e-06 -0.00626656 0.00025 16.6695 -0.101235 -1.72734 
2922840 -0.0282704 0.000626343 -0.00566911 0.00045 16.5061 -0.0803325 -1.81078 
2958886 -0.0268182 0.00103069 -0.00522057 0.00025 16.7387 0.307246 -1.81136 
2928779 -0.00918431 0.00069901 -0.00617379 0.00035 16.0511 0.288264 -2.51403 
2938691 -0.00773249 0.00110123 -0.00622441 0.00025 15.7214 0.519098 -3.1198 
2919899 -0.00612976 0.000483643 -0.00618689 0.00045 15.2913 -0.0846718 -2.94962 
2955706 -0.000346394 0.0204444 0.0112386 0.00025 -0.257734 10.4171 5.51707 
2950836 -0.000616654 -0.022784 0.0883213 0.00025 -0.881322 -2.83829 9.98421 
2930728 -0.000113698 -0.0609901 0.0981068 0.00025 -0.197496 -5.7412 8.33339 
2938268 -0.000363002 0.061299 0.0961917 0.00025 -0.470393 5.18619 8.70812 
2957220 -0.000800521 -0.0198896 0.0853506 0.00025 -1.17362 -2.98811 10.3154 
2942147 -0.000655578 0.0566239 0.0918916 0.00025 -1.1384 5.58657 8.40502 
2937654 -0.000424695 0.0795268 0.0858856 0.00025 -0.721751 5.78333 5.95915 
2933873 -0.000406778 0.0609401 0.0935909 0.00025 -0.574344 4.56724 8.38389 
2954016 -0.000766719 0.0570214 0.0929098 0.00025 -1.0661 5.49967 8.37308 
2963284 -0.000414985 0.0481422 0.041302 0.00025 -0.361437 7.90688 7.08431 
2961185 -0.000381075 -0.00965159 0.0445424 0.00025 -0.368663 -2.47978 10.6936 
2950131 -0.000154365 0.022933 0.00634722 0.00025 0.0983124 11.4779 2.43226 
2944251 -0.000777801 -0.0202558 0.086368 0.00025 -1.08839 -2.8572 10.5339 
2937050 -0.000723136 -0.0186966 0.082506 0.00025 -1.18461 -2.81803 10.4355 
2936823 -0.000216459 -0.0139791 0.094722 0.00025 -0.248866 -2.157 9.78718 
2927723 -0.000129273 0.0191275 0.0407013 0.00025 0.590268 5.11346 9.58689 
2943767 -0.000774158 0.0587323 0.0937447 0.00025 -1.0646 5.42509 8.69391 
2954080 -0.000301397 -0.0106475 0.0475305 0.00025 0.104433 -2.32456 10.4665 
2952057 -0.0282403 0.00411015 -0.00584715 0.00035 16.475 -0.0933976 -2.10396 
2946367 -0.0217644 0.00385768 -0.00556745 0.00025 16.5801 -0.107886 -1.81918 
2955685 -0.00911551 0.00334746 -0.00646225 0.00025 15.9363 0.26627 -2.49875 
2938775 -0.000555325 -0.0224571 0.0873279 0.00025 -0.836102 -3.03802 10.0757 
2943794 -0.000609284 0.0561865 0.0916543 0.00025 -0.80635 5.7398 8.14078 
2920924 -0.000961221 0.0571497 0.0905429 0.00025 -1.37007 5.73273 7.8646 
2937324 -0.000865678 0.0554857 0.0897092 0.00025 -1.34108 5.32588 8.36668 
2934241 -0.000415477 0.0238746 0.0394824 0.00025 -0.394739 6.05223 9.21199 
2949518 -0.000576964 -0.010305 0.0901546 0.00025 -0.35316 -2.32366 9.64198 
2954364 -0.000565269 -0.0191815 0.0822126 0.00025 -1.08157 -2.89506 10.5882 
2947178 -0.000535339 -0.0121911 0.0904557 0.00025 -0.149629 -2.47672 10.0784 
2921549 -0.000637797 0.0252566 0.0208722 0.00035 -0.446469 9.02245 6.98828 
2952785 -0.000258062 -0.0213378 0.0321766 0.00025 -0.021048 -6.32559 9.77474 
2941671 -0.00041999 -0.021032 0.0818342 0.00025 -0.996785 -2.86826 10.5169 
2936460 3.22617e-06 -0.0483159 0.0821588 0.00025 0.598041 -6.0903 7.80753 
2956540 -0.000321877 0.0511777 0.0799174 0.00025 -0.241238 6.54556 8.25708 
2943277 -0.000218484 0.0100647 -0.00665428 0.00035 8.6915 6.13751 -4.65878 
2968369 -0.000860577 0.0173095 0.0224122 0.00025 -0.655462 7.18234 8.63991 
2943057 -0.000160755 0.0455804 -0.00640093 0.00025 0.498527 11.531 -2.24997 
2940897 -0.000738716 -0.0234115 0.0878942 0.00025 -1.00368 -2.40998 10.388 
2966672 -0.000670838 -0.0435066 -0.00503331 0.00035 -0.0252557 -12.1165 -1.82125 