ITEM: TIMESTEP
955850
ITEM: NUMBER OF ATOMS
32191
ITEM: BOX BOUNDS ff ff ff
-0.705 0.705
-0.1016 0.1016
-0.11 0.11
ITEM: ATOMS id x y z radius vx vy vz 
2946112 -0.122809 -0.010596 0.00705842 0.00045 9.88803 0.721726 -0.537925 
2946175 -0.120829 -0.0105617 0.00693304 0.00035 10.2305 0.814607 -0.533281 
2949221 -0.117583 -0.0103544 0.00683795 0.00035 10.4758 0.804285 -0.702559 
2952373 -0.123752 -0.0114012 0.00934749 0.00025 9.88887 0.761715 -0.842327 
2956118 -0.137754 -0.0124032 0.00985562 0.00025 8.36818 0.714232 -0.862869 
2949779 -0.140075 -0.00937977 0.0105023 0.00025 8.1168 0.412703 -0.565053 
2951877 -0.111966 0.00155667 0.0200866 0.00055 11.0096 -0.16737 -1.85345 
2946572 -0.000355271 0.0714626 -0.109333 0.00025 -0.317221 4.8034 -9.48088 
2944296 -0.000125676 0.077733 -0.107603 0.00025 -0.0941559 5.30638 -8.85595 
2943516 -0.00293084 0.0965262 -0.108469 0.00025 -0.576753 7.51224 -8.84998 
2941485 -0.00329342 0.0729164 -0.107711 0.00025 -0.658579 5.97356 -10.2275 
2944345 -0.000332105 0.0809606 -0.107215 0.00025 -0.191545 5.82333 -8.96989 
2937665 -0.00279567 0.0829353 -0.106861 0.00025 -0.596669 6.06802 -8.8843 
2938267 -0.00139919 0.0845568 -0.107118 0.00025 -0.310118 6.92278 -9.51192 
2923533 -0.000272856 0.0840051 -0.107083 0.00025 -0.129367 6.60348 -9.28336 
2935853 -0.00354167 -0.000601362 -0.107598 0.00025 -1.19379 0.710837 -11.3275 
2919402 -0.00334501 0.0689532 -0.107487 0.00025 -0.718056 5.61801 -10.1931 
2932257 -0.00711694 0.0784916 -0.106468 0.00025 -1.28472 6.66624 -9.97819 
2937719 -0.00700988 0.0822947 -0.107122 0.00025 -1.12496 7.04315 -9.91175 
2932534 -0.000703904 0.0839397 -0.106798 0.00025 -0.327499 6.64618 -9.43041 
2938215 -0.00147535 0.0841761 -0.10602 0.00025 -0.552924 6.44555 -9.08621 
2939976 -0.00307802 -0.0206764 -0.106917 0.00025 -1.02971 -2.55088 -11.4415 
2940146 -0.0026066 -0.0171279 -0.106098 0.00025 -0.975342 -1.99543 -11.0924 
2932210 -0.00239476 0.0825294 -0.105083 0.00025 -0.519376 6.99658 -9.65429 
2927375 -0.000630436 0.0820295 -0.105073 0.00035 -0.22699 6.86398 -9.68704 
2949919 -0.00186699 0.0832853 -0.104479 0.00025 -0.427685 6.16839 -8.70588 
2944421 -0.00166546 0.0843095 -0.104792 0.00025 -0.5537 6.70422 -9.24028 
2933233 -0.00113721 0.0843496 -0.105537 0.00035 -0.344841 6.7688 -9.21674 
2920844 -0.000597349 0.0846573 -0.105518 0.00025 -0.239842 6.64054 -9.18428 
2944025 -0.000685779 0.0854141 -0.105418 0.00025 -0.250167 6.85434 -8.98017 
2941532 -0.00453751 0.0885321 -0.105627 0.00025 -0.747397 7.65085 -9.62521 
2951281 -0.00789395 0.0781232 -0.103721 0.00025 -1.27793 6.50207 -9.53988 
2950991 -0.00179673 0.0877834 -0.104288 0.00025 -0.37343 7.53225 -9.43091 
2935023 -0.00281905 0.0875925 -0.103724 0.00025 -0.607429 6.64345 -8.62932 
2944005 -0.00122968 0.0885926 -0.104138 0.00025 -0.259548 7.5312 -9.36631 
2957270 -0.00146066 0.000608239 -0.103969 0.00025 -0.728822 0.814743 -11.0753 
2924373 -0.00247764 0.0855389 -0.102735 0.00035 -0.580152 7.42676 -9.33912 
2931388 -0.00569542 0.0885577 -0.101861 0.00025 -0.971235 6.73679 -8.45753 
2943476 -0.00229133 0.0905129 -0.103146 0.00025 -0.418825 7.72206 -9.2408 
2941394 -0.00121394 0.0904323 -0.102932 0.00025 -0.264518 7.59645 -9.14648 
2934836 -0.000640548 -0.0974787 -0.101027 0.00025 -0.728962 -6.80556 -8.35254 
2945173 -0.00148433 -0.0218776 -0.102922 0.00025 -0.733319 -2.84132 -10.9042 
2952491 -0.00185162 -0.0166048 -0.103478 0.00025 -0.946351 -1.8093 -11.3791 
2945237 -0.00540433 0.0634095 -0.102642 0.00025 -1.33702 4.93587 -9.72289 
2943073 -0.00972395 0.0865628 -0.101334 0.00025 -1.54971 7.53317 -9.27693 
2931977 -0.0104411 0.0896783 -0.101446 0.00025 -1.64341 7.90927 -9.24587 
2934767 -0.00723575 0.0923113 -0.101163 0.00025 -1.15155 8.1337 -9.17149 
2926194 -0.000572091 0.0916855 -0.101958 0.00025 -0.169637 7.72376 -8.9556 
2938188 -0.000868453 0.091884 -0.101402 0.00025 -0.330733 7.70085 -8.95364 
2938108 -0.00609719 0.0760258 -0.101016 0.00025 -1.07346 6.30447 -9.29473 
2950864 -0.0032991 -0.0142987 -0.100285 0.00025 -1.09307 -1.50149 -10.469 
2942646 -0.00638187 0.0738168 -0.0994304 0.00025 -1.13262 6.17996 -9.25521 
2944552 -0.00571012 0.0816031 -0.0995413 0.00025 -1.08797 7.10989 -9.18922 
2931880 -0.00100134 0.089145 -0.0996198 0.00025 -0.433732 7.12906 -8.67095 
2933956 -0.000682632 0.0954377 -0.0989457 0.00025 -0.194009 8.25727 -8.75827 
2947800 -0.00180667 -0.0134089 -0.099581 0.00025 -0.738177 -1.38834 -10.38 
2951657 -0.00153645 -0.0107801 -0.0992441 0.00025 -0.713489 -0.85446 -10.4089 
2939020 -0.00631326 0.0795544 -0.0986401 0.00035 -1.23746 6.88041 -9.09663 
2941367 -0.00133 0.080585 -0.0987911 0.00025 -0.476418 6.82748 -9.04599 
2934539 -0.000983858 0.086352 -0.097966 0.00035 -0.388417 7.54527 -8.95724 
2951340 -0.00730871 0.0872969 -0.0981805 0.00025 -1.2777 7.67058 -8.95919 
2944095 -0.000805822 0.0875692 -0.0974326 0.00025 -0.389919 7.26949 -8.45592 
2940549 -0.00649096 0.0892732 -0.098522 0.00025 -1.08234 7.83087 -8.97279 
2925491 -0.00162664 -0.0238155 -0.0987038 0.00025 -0.576931 -2.90421 -10.8343 
2946604 -0.00579676 0.0768632 -0.0974331 0.00025 -1.15446 6.43469 -8.997 
2927350 -0.00125449 0.0804058 -0.0976113 0.00035 -0.568902 7.14279 -9.14416 
2942802 -0.00799915 0.0878091 -0.0967131 0.00025 -1.3527 7.69769 -8.8351 
2953709 -0.00135958 -0.0157898 -0.0971714 0.00025 -0.651969 -1.71995 -9.98036 
2932363 -0.000465373 -0.0130605 -0.0967964 0.00025 -0.380585 -1.21957 -10.1615 
2918506 -0.00516063 0.0859987 -0.0956999 0.00035 -1.10464 7.73591 -8.8869 
2943468 -0.0136326 0.088008 -0.0958778 0.00025 -2.16471 7.8272 -8.82962 
2929286 -0.00550455 0.0973986 -0.0960211 0.00025 -0.915648 8.64271 -8.58081 
2912656 -0.00275587 -0.0975112 -0.0939606 0.00045 -0.132262 -8.65014 -8.48495 
2921604 -0.00443889 0.0865441 -0.0930476 0.00035 -0.959763 7.83301 -8.70802 
2946961 -0.00406279 0.0989842 -0.0934206 0.00025 -0.735044 8.83997 -8.28637 
2938969 -0.0019572 0.00859674 -0.0954838 0.00035 -0.0378216 1.30655 -12.3742 
2925845 -0.00181397 0.0837556 -0.0918377 0.00035 -0.643646 7.48572 -8.46071 
2933036 -0.00533142 0.00933107 -0.0948782 0.00045 -0.636489 1.30184 -12.2701 
2924266 -0.00390912 0.0103834 -0.0939445 0.00045 -0.311616 1.42291 -12.2589 
2942092 -0.00299343 0.0729261 -0.0908214 0.00025 -0.689229 6.08246 -8.21716 
2923070 -0.00650556 0.0887803 -0.0914259 0.00035 -1.33714 8.06434 -8.49411 
2945850 -0.0129531 0.0905505 -0.0914639 0.00025 -2.02807 8.05059 -8.22533 
2943139 -0.00831681 0.0981018 -0.0905421 0.00025 -1.41967 8.92518 -8.06652 
2950505 -0.00110134 0.00895395 -0.0929513 0.00035 0.192043 1.36764 -12.2281 
2930126 -0.00225368 0.0135707 -0.0927246 0.00045 -0.0694913 1.84362 -12.1947 
2925964 -0.00795456 0.0920797 -0.0900796 0.00035 -1.47333 8.03178 -7.94263 
2921362 -0.00610509 -0.00144447 -0.0921426 0.00045 -0.921048 -0.0533709 -12.0832 
2921381 -0.00206087 0.00716177 -0.0919939 0.00045 -0.0207415 1.02014 -12.2387 
2930117 -0.00515993 0.0234782 -0.0914398 0.00045 -0.716567 2.99142 -11.9106 
2941734 -0.00117215 0.00646432 -0.0908751 0.00045 0.176601 1.09138 -12.2604 
2930290 -0.00178136 0.085203 -0.0878576 0.00035 -0.632773 7.71974 -8.09007 
2927506 -0.00869831 0.0944214 -0.0868155 0.00025 -1.45496 8.53145 -7.61732 
2924287 -0.00082833 -0.0116301 -0.0898483 0.00045 -0.0137825 -1.56917 -12.3058 
2935883 -0.00592477 0.000260664 -0.0901033 0.00055 -0.726313 0.180286 -12.0026 
2925855 -0.00142804 0.100594 -0.086432 0.00035 -0.445268 9.21889 -7.5499 
2959045 -0.000855886 -0.0183532 -0.088056 0.00025 -0.0467915 -2.56455 -11.6455 
2944674 -0.00170944 0.0222641 -0.0883455 0.00035 0.0514064 2.84983 -11.5921 
2941995 -0.00175961 0.0722114 -0.0857487 0.00025 -0.559551 6.25313 -8.18107 
2948012 -0.00693999 0.0851087 -0.0855253 0.00025 -1.33088 7.74872 -7.84897 
2949924 -0.0126292 0.0917777 -0.0850525 0.00025 -2.06864 8.24325 -7.5292 
2943163 -0.11077 -0.00148477 0.0197904 0.00045 10.7583 -0.347664 -2.01489 
2941814 -0.00160047 0.0281273 -0.0870396 0.00035 0.0215498 3.67362 -11.6033 
2915525 -0.00659257 0.000324827 -0.0852594 0.00055 -0.834949 0.185836 -11.5213 
2936996 -0.00225075 0.0832001 -0.0812322 0.00025 -0.693156 7.64391 -7.47321 
2921358 -0.0014653 0.0307888 -0.0835039 0.00045 0.118685 4.0722 -11.1835 
2927394 -0.000444009 0.085044 -0.081035 0.00035 -0.444718 8.12358 -7.64627 
2931519 -0.000254026 0.0316298 -0.0812576 0.00055 0.271594 4.42662 -11.0972 
2948422 -0.00173229 0.0866252 -0.078097 0.00025 -0.525435 8.1513 -6.97988 
2932136 -0.00369807 0.0894458 -0.0761454 0.00025 -0.93761 8.43794 -6.72998 
2948023 -0.00126422 0.0621151 -0.0772284 0.00025 -0.851033 6.23114 -8.74775 
2919897 -0.00247543 0.0693344 -0.0785181 0.00045 -0.306453 8.53798 -9.96075 
2949653 -0.000366573 0.0708548 -0.0748904 0.00025 -0.300817 7.34223 -8.04404 
2944884 -0.000980121 0.0675505 -0.0740382 0.00025 -0.704612 7.22546 -8.34367 
2944271 -0.00124962 0.0693336 -0.0746544 0.00025 -0.525541 7.18036 -7.95999 
2941968 -0.00102622 0.0705472 -0.075009 0.00035 -0.0365046 8.71783 -9.49516 
2951528 -0.000807929 -0.0104749 -0.075224 0.00025 -0.948218 -1.2753 -10.161 
2939013 -0.000547609 0.0715303 -0.074413 0.00035 0.0544091 8.97227 -9.60273 
2935978 -9.30048e-05 0.066437 -0.0732708 0.00035 -0.0492489 8.00409 -8.95262 
2942609 -0.000784743 0.07036 -0.0724812 0.00025 -0.647481 7.81186 -8.17166 
2959209 -0.0019381 0.0600888 -0.0715634 0.00045 -0.174808 7.73586 -9.472 
2921345 -0.00857756 0.0644047 -0.0718178 0.00055 -1.32754 8.23245 -9.42121 
2953366 -0.0044743 0.062611 -0.070844 0.00045 -0.559889 8.14688 -9.37535 
2948075 -0.000169832 0.0620313 -0.0706282 0.00025 0.278761 7.94917 -9.24042 
2950688 -0.00164758 0.063092 -0.0698934 0.00035 -0.116836 7.89834 -9.0547 
2933033 -0.00602247 0.0663662 -0.0693708 0.00045 -0.944976 8.50483 -9.08464 
2921377 -0.00032904 0.0752464 -0.0687447 0.00045 0.0263222 9.16167 -8.41495 
2934422 -0.0030181 0.0645115 -0.068789 0.00055 -0.336201 8.46552 -9.28994 
2937376 -0.00286006 0.073676 -0.068531 0.00045 -0.384556 9.51246 -8.90199 
2943690 -0.00214247 -0.0909078 -0.0652251 0.00025 -1.73731 -9.19824 -6.31045 
2930897 -0.00214417 0.0959912 -0.0643927 0.00025 -1.72174 7.71537 -6.60038 
2921376 -0.00215919 0.068337 -0.0638674 0.00045 -0.221322 8.96437 -8.48362 
2939567 -0.00131668 0.0935966 -0.0619218 0.00025 -1.35333 7.01396 -5.99784 
2947247 -0.00192189 0.0600412 -0.0609906 0.00025 -0.768817 8.03573 -8.03207 
2922787 -0.00148188 0.0658093 -0.0609983 0.00055 -0.181892 9.02141 -8.41467 
2939492 -0.000282399 0.0663951 -0.0596446 0.00025 -0.293569 9.42164 -7.96858 
2922014 -0.00196547 0.0528221 -0.0580708 0.00025 -1.37939 7.0628 -8.58137 
2932965 -0.000214917 0.0819298 -0.0528385 0.00055 0.715222 10.1572 -6.57271 
2915520 -0.00209744 0.0879887 -0.0528773 0.00055 -0.0719643 10.5529 -6.41718 
2927818 -0.00138438 0.0527741 -0.0521257 0.00025 -1.12009 7.17465 -7.17915 
2924407 -0.000116505 0.027814 -0.0503734 0.00035 0.845306 5.81224 -11.1347 
2932981 -0.00112774 0.00322297 -0.0495582 0.00055 -0.184145 1.00273 -12.5206 
2946864 -0.00207904 0.047283 -0.0442169 0.00025 -2.2086 8.35061 -7.49861 
2945153 -0.00023304 -0.101295 -0.0352012 0.00025 0.247759 -10.9112 -4.06697 
2935878 -0.000386053 0.033776 -0.0385927 0.00055 -0.148957 7.93215 -9.38256 
2925648 -0.000171207 0.0746713 -0.0346161 0.00025 0.581983 10.8904 -4.61627 
2947529 -8.74271e-06 0.0373691 -0.0377473 0.00045 0.228678 8.53406 -9.10943 
2945578 -0.0004925 0.0711803 -0.0331025 0.00025 -0.230009 10.1771 -4.51214 
2956231 -0.00017757 0.0343137 -0.0320999 0.00055 0.0389944 8.91184 -8.57368 
2952006 -4.55538e-05 0.04502 -0.0287456 0.00035 0.223449 10.1778 -6.61731 
2957174 -0.000188253 0.0739699 -0.0256377 0.00025 0.208269 11.0518 -3.4688 
2918447 -0.001032 -0.0476439 -0.0265036 0.00045 0.119121 -10.4325 -6.11498 
2950580 -0.000275981 0.046965 -0.0261701 0.00035 0.467887 10.6245 -6.12035 
2918437 -0.000507716 0.0213407 -0.0271192 0.00055 -0.385129 7.61542 -10.1542 
2938479 -0.00192719 -0.0741597 -0.0177043 0.00025 -2.06525 -10.9276 -3.18528 
2961030 -2.00345e-05 0.0388401 -0.0208087 0.00025 0.310481 10.6458 -5.99987 
2938798 -0.00179027 -0.0855357 -0.0164959 0.00045 -0.134714 -11.5181 -2.31013 
2933906 -0.00129846 -0.0681685 -0.0169787 0.00025 -1.41156 -9.4506 -3.21834 
2924261 -0.000125772 -0.0410634 -0.0185588 0.00045 0.183962 -11.0245 -5.52984 
2937661 -0.000198588 0.0191869 -0.0225059 0.00025 0.0422954 7.42593 -9.89401 
2956189 -0.00150066 -0.0680752 -0.0164569 0.00025 -1.37225 -9.18066 -3.1691 
2933230 -0.000249312 0.020854 -0.0212044 0.00035 -0.0342577 8.90071 -9.74356 
2951903 -0.00127017 0.0508106 -0.0169652 0.00045 0.269928 10.856 -3.87565 
2954821 -0.00050657 0.0508125 -0.0153852 0.00045 0.598869 11.2994 -3.411 
2924258 -9.42865e-05 0.05631 -0.0144986 0.00045 0.403813 11.2937 -2.75951 
2943199 -0.00080181 0.0573096 -0.014884 0.00045 0.484913 11.4235 -3.08714 
2923897 -0.00158164 -0.0722182 -0.0131182 0.00025 -1.57962 -10.2316 -2.30458 
2940300 -9.88784e-05 -0.0529677 -0.0140797 0.00045 0.667925 -11.7483 -3.46931 
2944648 -0.000381774 0.0257812 -0.0179274 0.00045 -0.130701 10.6728 -7.44882 
2967464 -0.00176007 -0.0761524 -0.0124085 0.00025 -1.7215 -11.4024 -2.2618 
2968388 -0.00014028 -0.0277914 -0.0152141 0.00025 0.100696 -10.2766 -6.22841 
2952067 -0.11236 0.0105254 0.00954269 0.00035 10.9426 -0.864377 -1.0553 
2943160 -0.1112 0.010066 0.00916535 0.00045 11.1833 -0.76135 -1.09421 
2942762 -0.0008936 0.0586332 0.0949466 0.00025 -1.07809 5.7539 8.53491 
2950528 -0.000109747 0.0516926 -0.0124158 0.00035 1.16245 11.2385 -2.79852 
2944653 -0.00085707 0.0531632 -0.0128948 0.00045 0.502682 11.317 -2.88033 
2935924 -0.00014326 -0.0496333 -0.0108091 0.00045 0.269649 -11.5908 -2.78498 
2934463 -0.109226 0.0101045 0.0107856 0.00045 11.5488 -0.892274 -1.04565 
2947243 -0.00116097 -0.00229156 -0.0122528 0.00025 9.15649 -1.1318 -8.09938 
2929756 -0.00104019 -0.00088484 -0.0123179 0.00025 9.16998 -0.925696 -8.15928 
2958099 -0.000466267 0.000396795 -0.0125349 0.00025 8.31473 0.864073 -8.4718 
2934689 -0.000475583 0.00124481 -0.0123033 0.00035 8.641 0.964969 -8.41962 
2935035 -0.000186314 0.0647811 0.100429 0.00025 -0.326396 5.84438 7.56136 
2940369 -0.000237737 -0.0223191 0.0958906 0.00035 -0.24998 -2.83593 9.70978 
2923283 -0.00086407 -0.0225273 0.092029 0.00025 -0.437782 -3.07803 9.59241 
2931106 -0.000338046 0.0390556 0.0923585 0.00025 -0.542324 3.86682 9.33715 
2949914 -9.67022e-05 0.000293131 0.0921341 0.00025 0.379802 -1.05054 9.81217 
2940455 -0.109446 -0.0101112 0.0077059 0.00035 11.4845 0.867832 -0.86394 
2937328 -0.109496 0.0101148 0.00975906 0.00055 11.2954 -0.887043 -1.00144 
2953617 -0.000640551 -0.023863 0.0886203 0.00025 -0.985979 -2.6421 10.3498 
2931161 -0.00011374 0.0882119 0.0814434 0.00025 -0.196842 7.35378 5.69467 
2940728 -0.000135628 0.0479914 0.079429 0.00025 -0.0148651 6.322 7.89409 
2951793 -0.000887213 -0.0456178 0.0832846 0.00025 -0.944378 -6.82989 8.46898 
2920248 -0.000425252 0.0218211 -0.0139281 0.00025 -0.126873 9.43802 -6.49578 
2959862 -5.16798e-05 0.051569 -0.01068 0.00025 0.651202 10.7881 -2.58021 
2942644 -0.000326514 -0.0373723 0.0744919 0.00025 -0.87949 -5.89308 8.88438 
2937335 -0.108799 -7.37955e-05 -0.000118399 0.00055 11.8257 0.199057 -0.448859 
2946135 -0.108968 -0.000916731 -0.000666012 0.00035 11.721 0.00361621 -0.0705922 
2947467 -0.111376 -0.00999962 0.00668386 0.00025 11.7285 0.800633 -0.506205 
2934418 -0.113549 -0.0104093 0.00942258 0.00055 10.5534 0.810501 -0.777377 
2954567 -8.82407e-05 -0.0197835 0.0742312 0.00025 0.617736 -3.14576 9.44136 
2956718 -0.000330209 -0.0160289 0.0714245 0.00025 -0.134562 -3.57161 9.25023 
2949693 -0.0074114 -0.00217195 -0.00877231 0.00025 15.5692 -0.0205044 -2.58533 
2954390 -0.000277932 -0.0116563 0.0667805 0.00025 -0.299013 -2.52587 9.8481 
2935127 -0.00665741 0.000143505 -0.00894209 0.00025 15.1214 0.0782419 -2.54294 
2919896 -0.00128814 0.00113834 -0.0109747 0.00045 9.98844 0.815215 -7.01393 
2940553 -0.000746109 0.000600518 -0.0120706 0.00025 8.34068 0.901239 -8.11487 
2952332 -0.000421118 0.000732684 -0.0115593 0.00025 8.842 0.449805 -8.31973 
2947399 -0.000105284 0.0010871 -0.0118305 0.00025 8.57239 0.804091 -8.29399 
2940267 -6.35345e-05 0.00114839 -0.0107055 0.00045 9.22085 0.727356 -7.44747 
2925540 -0.000824743 0.0579819 0.0940978 0.00025 -1.08998 5.40772 8.63548 
2920000 -0.00157737 0.00194173 -0.0107737 0.00035 8.97827 1.07162 -6.99271 
2946164 -0.000543115 0.0018341 -0.0108966 0.00035 9.65206 0.746792 -7.88037 
2939780 -0.000335998 0.0772334 0.0621426 0.00025 -0.0786807 6.90494 5.45719 
2969983 -0.000378958 -0.00772584 0.0448334 0.00025 -0.33351 -2.09289 10.8435 
2924410 -0.000611316 0.0491714 -0.0102997 0.00035 0.783956 11.2204 -2.98312 
2957607 -0.000104141 0.0487951 -0.0104307 0.00025 1.16872 10.7571 -2.78591 
2920045 -0.000386624 -0.0521328 -0.00794507 0.00035 0.691039 -11.889 -2.27945 
2949864 -0.00016751 -0.0910209 0.0381417 0.00025 0.045593 -9.19544 4.18157 
2950474 -0.00131694 -0.0471464 -0.00891113 0.00045 -0.265283 -11.8988 -2.43142 
2960468 -0.000259961 -0.0444725 -0.00824595 0.00025 0.664182 -11.5691 -2.40226 
2922799 -0.000449841 -0.042102 -0.00937683 0.00055 -0.146381 -11.9024 -2.84092 
2940234 -0.110064 0.00990512 0.00884612 0.00055 11.2859 -1.07736 -0.941094 
2952239 -0.00778825 -0.00279403 -0.00889682 0.00025 16.1207 -0.108139 -2.37748 
2950216 -0.00253424 -0.00378536 -0.00897731 0.00025 11.0846 -2.38923 -5.93 
2920819 -0.000276472 -0.0164766 0.0385031 0.00025 -0.0917416 -4.68748 10.2193 
2952920 -0.00769604 -0.00197363 -0.00837421 0.00025 15.5465 -0.386417 -3.42236 
2949262 -0.000209858 -0.0237441 0.0944605 0.00025 0.396174 -2.9759 8.7928 
2947088 -0.000505224 -0.000498435 -0.0105195 0.00025 8.58808 -0.81318 -7.69838 
2935404 -0.000928524 0.000962785 -0.0104091 0.00025 9.90175 0.778113 -6.98869 
2928813 -0.00700352 0.00123009 -0.0084306 0.00035 15.3685 0.294402 -2.76991 
2955046 -0.000770478 0.00250308 -0.00974163 0.00035 9.67042 0.818487 -6.69125 
2951944 -1.57891e-05 0.00226672 -0.0108317 0.00035 8.95067 1.12347 -8.17958 
2940891 -0.000412334 -0.0177766 0.0933583 0.00025 -0.250842 -2.55567 10.1102 
2938553 -0.000184638 0.0188842 0.089428 0.00025 -0.232607 2.75415 10.3052 
2950554 -0.000258324 0.0480926 -0.00943941 0.00035 0.490758 11.3474 -2.71315 
2936049 -0.00074001 0.0484684 -0.00910172 0.00035 0.693626 11.4565 -2.55456 
2952334 -0.109973 -0.00800331 0.00534808 0.00025 11.6546 0.797599 -0.630783 
2938950 -0.000635722 -0.0201816 0.0837746 0.00035 -1.01934 -3.10293 10.4488 
2939723 -0.000619273 -0.044498 0.0759714 0.00025 -0.693586 -5.61393 9.03879 
2927403 -0.000107531 -0.0507404 -0.00762807 0.00035 0.995396 -11.7703 -2.30849 
2962494 9.68684e-06 -0.0474606 -0.00767164 0.00025 1.36244 -11.9986 -2.30737 
2940021 -0.000740571 -0.0423802 0.0738648 0.00025 -0.929635 -5.64241 8.84357 
2955092 -2.36325e-06 -0.0443872 -0.00659221 0.00025 0.431811 -11.6314 -1.78655 
2970094 -0.000136811 -0.0397611 -0.00689692 0.00025 -0.0548912 -10.992 -2.26725 
2972187 -0.00011575 -0.0405973 -0.00812446 0.00025 0.108874 -11.2594 -2.63934 
2933640 -0.000185314 -0.0393616 -0.00759047 0.00025 0.488204 -11.085 -2.47426 
2935668 -0.000210894 -0.0261859 -0.00869846 0.00025 0.32243 -10.5282 -4.23982 
2964250 -0.000174782 0.033218 0.0299041 0.00025 0.000175955 8.58071 7.38871 
2933659 -0.00043266 0.035747 0.0251234 0.00025 0.0756541 9.60775 6.68543 
2931238 -0.000649203 -0.0419447 0.072329 0.00025 -0.673208 -5.39316 8.91516 
2941110 -0.0208188 -0.00242152 -0.00747515 0.00025 16.3489 0.310656 -1.65895 
2931511 -0.020509 -0.00251982 -0.0067458 0.00055 16.3404 0.107323 -1.70228 
2956033 -0.0178894 -0.00305353 -0.00619761 0.00025 16.6128 -0.069778 -1.31173 
2952297 -0.0204459 -0.00151028 -0.00698136 0.00025 16.5994 0.0816644 -1.81064 
2952338 -0.0194501 -0.00201325 -0.00742857 0.00025 16.703 -0.00621713 -2.20587 
2952984 -0.0191555 -0.00157303 -0.00687405 0.00025 16.7897 -0.00149069 -1.98818 
2941498 -0.0188929 -0.00116735 -0.00704435 0.00025 16.851 0.0943273 -1.76598 
2920633 -0.0149183 -0.00190257 -0.00767105 0.00025 16.6726 -0.0567507 -2.58402 
2934541 -0.0142773 -0.00170398 -0.0078199 0.00035 16.6382 -0.161321 -3.10073 
2928882 -0.00315621 -0.00259097 -0.00796039 0.00035 13.024 -0.975453 -4.45264 
2925839 -0.00265462 -0.0027703 -0.00750988 0.00035 12.6305 -1.58938 -4.73916 
2951919 -0.00119868 -0.00205564 -0.00874465 0.00045 11.3426 -0.919621 -6.45401 
2925748 -0.021757 -0.000676454 -0.00690997 0.00045 16.4034 0.0452914 -1.3745 
2925707 -0.0098447 -0.00073392 -0.00584004 0.00055 16.0924 -0.0625063 -1.3308 
2925753 -0.00604877 -0.000859655 -0.00722869 0.00045 15.1918 -0.29563 -2.9717 
2929326 -0.00416075 -0.000384378 -0.00629382 0.00025 13.0172 -0.627278 -3.24726 
2931746 -0.00152824 -0.00112286 -0.00874389 0.00035 10.9948 -0.857646 -6.38699 
2936995 -1.98442e-05 -0.0623449 0.101927 0.00025 -0.0300101 -6.09147 8.41404 
2945999 -0.000523485 0.0614572 0.099046 0.00025 -0.885921 5.31 7.97173 
2955774 -0.0258284 0.000914363 -0.00650631 0.00025 16.499 0.117801 -1.88208 
2948076 -0.000667249 0.0269308 0.0244084 0.00025 -0.614351 8.63876 7.48731 
2950364 -0.0327035 0.00137508 -0.00646925 0.00025 16.5401 -0.0308716 -1.23579 
2928820 -0.0182703 0.00159115 -0.00696817 0.00035 16.8418 0.379027 -1.47454 
2937399 -0.00882995 0.00132005 -0.00743966 0.00045 15.7678 0.254311 -2.60147 
2925771 -0.000567427 0.0143372 0.0146113 0.00035 -0.535774 8.02484 7.59616 
2949454 -0.000924548 0.00423479 0.0276503 0.00025 -0.476608 2.16856 11.5379 
2930054 -5.67839e-05 0.0113238 0.0634237 0.00055 -0.0654438 1.96691 10.8428 
2951306 -0.000389165 0.0271707 0.0225224 0.00025 -0.324036 9.15396 7.26556 
2946208 -0.113451 -0.0096835 0.00565718 0.00035 11.0614 0.771605 -0.511951 
2920644 -0.000257142 0.0213447 0.100109 0.00025 -0.388969 2.33764 9.79556 
2948018 -0.00057269 -0.083939 0.0556868 0.00025 -0.660284 -8.55759 4.02076 
2921401 -0.00175882 0.047787 -0.00716299 0.00045 0.402487 10.9658 -2.13707 
2923340 -0.000169638 0.0780254 0.108428 0.00025 -0.227796 5.499 8.43705 
2956307 -0.00020253 -0.0465831 -0.00632725 0.00035 0.402129 -11.8842 -1.8947 
2932967 -0.000288014 -0.0456947 -0.0063119 0.00055 -0.120755 -12.0004 -1.85659 
2965176 -2.7459e-05 -0.0437245 -0.00611442 0.00035 0.3127 -11.5439 -1.96212 
2919131 -0.000131908 -0.0412051 -0.00644915 0.00025 0.120393 -11.8005 -2.17178 
2940243 -0.112938 -0.00914728 0.00515066 0.00055 10.9638 0.715762 -0.683571 
2927682 -0.000412665 0.0313422 0.0267142 0.00025 -0.513141 8.86363 7.36203 
2927207 -0.00131449 -0.00960339 0.0221026 0.00045 -1.7131 -4.61859 9.46855 
2921917 -0.000627998 0.0585934 0.0943921 0.00025 -0.964837 5.56461 8.46544 
2956049 -0.000523464 0.00449455 0.0218817 0.00025 -1.04701 2.14965 11.0639 
2959125 -0.0148084 -0.00592676 -0.0058433 0.00025 16.6445 -0.838803 -2.31153 
2933762 -0.000722477 0.0578506 0.0936154 0.00025 -1.1081 5.38601 8.59866 
2918841 -0.000835551 0.0578148 0.0923755 0.00025 -1.28989 5.26215 8.48471 
2945420 -0.000161531 0.0503425 0.045672 0.00025 -0.0955448 8.01531 6.92948 
2935056 -0.0181118 -0.00383169 -0.00611496 0.00025 16.6309 0.00326424 -1.43804 
2931590 -0.015185 -0.00435743 -0.00659955 0.00035 16.5962 -0.0391174 -2.59684 
2952352 -0.0182655 -0.00285389 -0.00589401 0.00025 16.5873 -0.154863 -1.45581 
2958318 -0.0191042 -0.00301574 -0.00540686 0.00025 16.7225 -0.0667997 -1.62812 
2934531 -0.0178138 -0.00258274 -0.00549841 0.00035 16.4937 -0.0626207 -1.24262 
2947494 -0.0173911 -0.00261325 -0.00507418 0.00025 16.6121 -0.0615234 -1.34804 
2944343 -0.0160808 -0.00288013 -0.00507735 0.00025 16.6319 0.230242 -1.39698 
2956110 -0.0111452 -0.00216634 -0.0049492 0.00025 16.6121 0.274165 -0.626065 
2944273 -0.00722509 -0.00413208 -0.00640542 0.00025 15.661 -1.22784 -3.54598 
2949179 -0.0273364 -0.00169079 -0.0053138 0.00035 16.4146 -0.0474406 -1.68605 
2949576 -0.0223569 -0.00195039 -0.00545007 0.00025 16.6689 0.0956291 -1.57749 
2943896 -0.0199002 -0.00185083 -0.00649708 0.00025 16.6859 0.0755461 -2.03141 
2934889 -0.0185925 -0.00180433 -0.00570734 0.00025 16.7061 -0.0231208 -1.52965 
2925887 -0.0181923 -0.0016021 -0.00526705 0.00035 16.6377 0.00211957 -1.33715 
2952448 -0.0175209 -0.00180482 -0.0052464 0.00025 16.6131 0.0785918 -0.994476 
2952512 -0.00859632 -0.00145823 -0.00657114 0.00025 15.6686 -0.129551 -2.94539 
2950044 -0.00470032 -0.00145348 -0.00484218 0.00025 13.2441 -0.518289 -1.77841 
2922829 -0.00448569 -0.00162607 -0.00548268 0.00045 13.7551 -0.629316 -1.61715 
2917166 -0.00396396 -0.00221565 -0.00571237 0.00035 12.7213 -0.614537 -2.28103 
2935400 -0.000396472 0.0257618 0.0160891 0.00025 -0.471552 10.3537 6.26956 
2929399 -0.000257224 0.062703 0.0994857 0.00025 -0.499321 5.19157 7.37835 
2956188 -0.0382397 -0.00018457 -0.00530247 0.00025 16.655 -0.144658 -1.58027 
2943347 -0.0336619 -0.000270511 -0.00549817 0.00035 16.5918 -0.0202714 -1.29495 
2949428 -0.0317148 -0.000367058 -0.00517675 0.00025 16.6763 -0.242387 -1.58401 
2937358 -0.0286291 -0.000694041 -0.00533676 0.00045 16.4822 0.243927 -0.939297 
2956100 -0.0258631 -0.000913824 -0.00516591 0.00025 16.393 -0.0183626 -1.38598 
2950280 -0.0209097 -0.000789295 -0.00633141 0.00025 16.919 0.179498 -2.04571 
2925694 -0.0196306 -0.000845256 -0.00612728 0.00055 16.4935 0.0197726 -1.92968 
2944465 -0.0138135 -0.000769847 -0.00650183 0.00025 17.1521 -0.12158 -3.33568 
2935027 -0.0025696 -0.00110465 -0.00759556 0.00025 11.7601 -0.618478 -5.82089 
2946312 -0.000572438 -0.0154161 0.0905355 0.00035 -0.68609 -1.98669 10.2901 
2940413 -0.0336677 0.000900252 -0.0054843 0.00035 16.5255 -0.105732 -1.60349 
2946965 -0.0322335 0.00110142 -0.00653452 0.00025 16.825 0.0887388 -2.02553 
2944009 -0.0281941 -8.25006e-05 -0.00595135 0.00025 16.7131 -0.116481 -1.2432 
2952933 -0.0285182 0.000474125 -0.00513025 0.00025 16.4199 0.0884892 -1.09979 
2935046 -0.0281011 0.000317475 -0.0062603 0.00025 16.6429 -0.28958 -1.65899 
2947062 -0.0276812 3.30648e-07 -0.00631755 0.00025 16.6782 -0.0960065 -1.69098 
2922840 -0.0277748 0.000623711 -0.00572309 0.00045 16.5259 -0.0882918 -1.77433 
2958886 -0.0263163 0.0010385 -0.00527532 0.00025 16.7099 0.219931 -1.8258 
2928779 -0.00870478 0.000707449 -0.00625037 0.00035 15.9064 0.282749 -2.61665 
2938691 -0.0072628 0.00111647 -0.0063189 0.00025 15.58 0.50572 -3.20492 
2919899 -0.00567614 0.000482577 -0.00627896 0.00045 14.9523 -0.00150286 -3.19033 
2955706 -0.000353772 0.0207568 0.011404 0.00025 -0.233581 10.4057 5.51086 
2950836 -0.000642981 -0.022869 0.0886208 0.00025 -0.874 -2.83134 9.98498 
2930728 -0.000119623 -0.0611623 0.0983568 0.00025 -0.197496 -5.7412 8.33339 
2938268 -0.000377114 0.0614546 0.096453 0.00025 -0.470393 5.18619 8.70812 
2957220 -0.000835462 -0.019979 0.08566 0.00025 -1.15563 -2.9724 10.3109 
2942147 -0.000689778 0.0567916 0.0921437 0.00025 -1.14122 5.59504 8.40285 
2937654 -0.000446347 0.0797003 0.0860644 0.00025 -0.721751 5.78333 5.95915 
2933873 -0.000424008 0.0610771 0.0938424 0.00025 -0.574344 4.56724 8.38389 
2954016 -0.000798702 0.0571864 0.093161 0.00025 -1.0661 5.49967 8.37308 
2963284 -0.0004254 0.048379 0.041514 0.00025 -0.332996 7.88071 7.05332 
2961185 -0.000392039 -0.00972593 0.044863 0.00025 -0.362523 -2.47702 10.6858 
2950131 -0.000151179 0.0232772 0.00642005 0.00025 0.113483 11.4701 2.42402 
2944251 -0.000810215 -0.0203413 0.0866838 0.00025 -1.07235 -2.8442 10.5258 
2937050 -0.000758408 -0.0187809 0.0828189 0.00025 -1.16715 -2.80341 10.4238 
2936823 -0.000223918 -0.0140438 0.0950156 0.00025 -0.249029 -2.15505 9.77586 
2927723 -0.000111001 0.0192811 0.0409887 0.00025 0.627316 5.12703 9.57549 
2943767 -0.000806096 0.058895 0.0940055 0.00025 -1.0646 5.42509 8.69391 
2954080 -0.000298131 -0.0107171 0.0478444 0.00025 0.112734 -2.31682 10.4649 
2952057 -0.0277459 0.00410724 -0.00590991 0.00035 16.4819 -0.103419 -2.0666 
2946367 -0.0212669 0.00385451 -0.00562229 0.00025 16.5817 -0.105013 -1.83677 
2955685 -0.00863987 0.00335603 -0.00653859 0.00025 15.7643 0.309683 -2.60091 
2938775 -0.000580289 -0.0225481 0.0876302 0.00025 -0.828319 -3.02702 10.0748 
2943794 -0.000633461 0.0563588 0.0918986 0.00025 -0.805688 5.74054 8.1424 
2920924 -0.00100232 0.0573217 0.0907788 0.00025 -1.37007 5.73273 7.8646 
2937324 -0.00090591 0.0556455 0.0899602 0.00025 -1.34108 5.32588 8.36668 
2934241 -0.000426931 0.0240562 0.0397587 0.00025 -0.364501 6.04971 9.21145 
2949518 -0.000586035 -0.0103748 0.0904438 0.00025 -0.251359 -2.32939 9.63651 
2954364 -0.000597558 -0.019268 0.0825302 0.00025 -1.07034 -2.8759 10.587 
2947178 -0.000538961 -0.0122654 0.0907575 0.00025 -0.11315 -2.47532 10.0571 
2921549 -0.000651098 0.0255272 0.0210819 0.00035 -0.439318 9.01673 6.98764 
2952785 -0.000258145 -0.0215274 0.0324698 0.00025 0.0160257 -6.315 9.77614 
2941671 -0.000449824 -0.0211178 0.0821499 0.00025 -0.992103 -2.85263 10.5305 
2956540 -0.000328541 0.0513737 0.080165 0.00025 -0.202554 6.52017 8.24686 
2943277 3.82769e-05 0.0102515 -0.00679585 0.00035 8.4294 6.33339 -4.76376 
2968369 -0.000880019 0.0175249 0.0226712 0.00025 -0.640809 7.17772 8.63162 
2943057 -0.000145408 0.0459262 -0.00646847 0.00025 0.523852 11.5263 -2.2523 
2940897 -0.00076868 -0.0234838 0.0882057 0.00025 -0.99416 -2.40818 10.3831 
2966672 -0.000671584 -0.0438701 -0.00508795 0.00035 -0.0244474 -12.116 -1.82131 
2919963 -0.000507262 -0.0290607 -0.00521248 0.00035 -0.146372 -11.5641 -2.3347 
2943473 -0.000418616 -0.0825645 0.0427823 0.00025 -0.384434 -10.0771 4.25321 
2945472 -0.000135597 -0.0216794 0.0929152 0.00025 0.0193984 -3.08391 9.56192 
2927426 -0.000170514 0.0604507 0.0961199 0.00035 -0.473372 5.45978 7.97112 
2946249 -0.000331544 -0.0122627 0.0845217 0.00035 -0.843764 -1.57427 10.5328 
2935890 -0.000660471 0.0280239 0.00460892 0.00045 -0.872566 12.0227 1.63818 
2954303 -0.000674052 -0.0199961 0.0875253 0.00025 -0.849018 -2.68541 10.2551 
2962798 -1.07023e-05 0.0710884 0.0258901 0.00025 0.677756 9.49328 3.40283 
2960422 -0.000426129 -0.0416293 0.0810679 0.00025 -0.904864 -5.92711 8.98396 
2935839 -0.0170026 -0.0070748 -0.00472145 0.00025 16.7166 0.0531865 -1.66386 
2944109 -0.000869428 -0.00950207 -0.00574007 0.00025 8.45683 -5.99236 -4.52571 