ITEM: TIMESTEP
955870
ITEM: NUMBER OF ATOMS
32191
ITEM: BOX BOUNDS ff ff ff
-0.705 0.705
-0.1016 0.1016
-0.11 0.11
ITEM: ATOMS id x y z radius vx vy vz 
2946112 -0.122611 -0.0105817 0.00704759 0.00045 9.90412 0.703979 -0.543046 
2946175 -0.120625 -0.0105456 0.00692235 0.00035 10.2342 0.796246 -0.533847 
2949221 -0.117373 -0.0103381 0.00682374 0.00035 10.5124 0.804934 -0.707334 
2952373 -0.123554 -0.0113861 0.00933063 0.00025 9.90349 0.761653 -0.854527 
2956118 -0.137587 -0.0123891 0.00983844 0.00025 8.35655 0.693675 -0.846963 
2949779 -0.139913 -0.0093716 0.010491 0.00025 8.1099 0.395216 -0.552189 
2951877 -0.111744 0.0015534 0.0200494 0.00055 11.1049 -0.154065 -1.86387 
2946572 -0.000361615 0.0715587 -0.109523 0.00025 -0.317221 4.8034 -9.48088 
2944296 -0.00012756 0.0778391 -0.107781 0.00025 -0.0941559 5.30638 -8.85595 
2943516 -0.00294238 0.0966764 -0.108646 0.00025 -0.576753 7.51224 -8.84998 
2941485 -0.00330659 0.0730358 -0.107916 0.00025 -0.658579 5.97356 -10.2275 
2944345 -0.000335936 0.0810771 -0.107394 0.00025 -0.191545 5.82333 -8.96989 
2937665 -0.0028076 0.0830567 -0.107039 0.00025 -0.596669 6.06802 -8.8843 
2938267 -0.00140539 0.0846953 -0.107308 0.00025 -0.310118 6.92278 -9.51192 
2923533 -0.000275444 0.0841372 -0.107269 0.00025 -0.129367 6.60348 -9.28336 
2935853 -0.00356555 -0.000587145 -0.107825 0.00025 -1.19379 0.710837 -11.3275 
2919402 -0.00335937 0.0690656 -0.107691 0.00025 -0.718056 5.61801 -10.1931 
2932257 -0.00714264 0.0786249 -0.106668 0.00025 -1.28472 6.66624 -9.97819 
2937719 -0.00703238 0.0824356 -0.10732 0.00025 -1.12496 7.04315 -9.91175 
2932534 -0.000710454 0.0840726 -0.106987 0.00025 -0.327499 6.64618 -9.43041 
2938215 -0.00148641 0.084305 -0.106202 0.00025 -0.552924 6.44555 -9.08621 
2939976 -0.00309861 -0.0207274 -0.107146 0.00025 -1.02971 -2.55088 -11.4415 
2940146 -0.00262611 -0.0171678 -0.10632 0.00025 -0.975342 -1.99543 -11.0924 
2932210 -0.00240515 0.0826694 -0.105276 0.00025 -0.519376 6.99658 -9.65429 
2927375 -0.000634975 0.0821668 -0.105267 0.00035 -0.22699 6.86398 -9.68704 
2949919 -0.00187554 0.0834086 -0.104653 0.00025 -0.427685 6.16839 -8.70588 
2944421 -0.00167653 0.0844436 -0.104977 0.00025 -0.5537 6.70422 -9.24028 
2933233 -0.00114411 0.0844849 -0.105722 0.00035 -0.344841 6.7688 -9.21674 
2920844 -0.000602146 0.0847901 -0.105702 0.00025 -0.239842 6.64054 -9.18428 
2944025 -0.000690783 0.0855512 -0.105597 0.00025 -0.250167 6.85434 -8.98017 
2941532 -0.00455245 0.0886852 -0.105819 0.00025 -0.747397 7.65085 -9.62521 
2951281 -0.0079195 0.0782532 -0.103912 0.00025 -1.27793 6.50207 -9.53988 
2950991 -0.0018042 0.087934 -0.104477 0.00025 -0.37343 7.53225 -9.43091 
2935023 -0.0028312 0.0877254 -0.103896 0.00025 -0.607429 6.64345 -8.62932 
2944005 -0.00123487 0.0887432 -0.104325 0.00025 -0.259548 7.5312 -9.36631 
2957270 -0.00147524 0.000624534 -0.10419 0.00025 -0.728822 0.814743 -11.0753 
2924373 -0.00248924 0.0856874 -0.102922 0.00035 -0.580152 7.42676 -9.33912 
2931388 -0.00571485 0.0886924 -0.10203 0.00025 -0.971235 6.73679 -8.45753 
2943476 -0.00229971 0.0906674 -0.103331 0.00025 -0.418825 7.72206 -9.2408 
2941394 -0.00121923 0.0905842 -0.103115 0.00025 -0.264518 7.59645 -9.14648 
2934836 -0.000655127 -0.0976148 -0.101194 0.00025 -0.728962 -6.80556 -8.35254 
2945173 -0.001499 -0.0219344 -0.10314 0.00025 -0.733319 -2.84132 -10.9042 
2952491 -0.00187054 -0.0166409 -0.103706 0.00025 -0.946351 -1.8093 -11.3791 
2945237 -0.00543107 0.0635082 -0.102837 0.00025 -1.33702 4.93587 -9.72289 
2943073 -0.00975494 0.0867135 -0.101519 0.00025 -1.54971 7.53317 -9.27693 
2931977 -0.010474 0.0898365 -0.101631 0.00025 -1.64341 7.90927 -9.24587 
2934767 -0.00725878 0.092474 -0.101346 0.00025 -1.15155 8.1337 -9.17149 
2926194 -0.000575484 0.09184 -0.102138 0.00025 -0.169637 7.72376 -8.9556 
2938188 -0.000875068 0.0920381 -0.101581 0.00025 -0.330733 7.70085 -8.95364 
2938108 -0.00611866 0.0761519 -0.101202 0.00025 -1.07346 6.30447 -9.29473 
2950864 -0.00332096 -0.0143288 -0.100495 0.00025 -1.09293 -1.50148 -10.469 
2942646 -0.00640453 0.0739404 -0.0996155 0.00025 -1.13262 6.17996 -9.25521 
2944552 -0.00573188 0.0817453 -0.099725 0.00025 -1.08797 7.10989 -9.18922 
2931880 -0.00101002 0.0892876 -0.0997932 0.00025 -0.433732 7.12906 -8.67095 
2933956 -0.000686512 0.0956029 -0.0991209 0.00025 -0.194009 8.25727 -8.75827 
2947800 -0.00182143 -0.0134367 -0.0997886 0.00025 -0.738066 -1.38834 -10.3799 
2951657 -0.00155072 -0.0107972 -0.0994522 0.00025 -0.713394 -0.85446 -10.4089 
2939020 -0.006338 0.079692 -0.098822 0.00035 -1.23746 6.88041 -9.09663 
2941367 -0.00133953 0.0807215 -0.098972 0.00025 -0.476418 6.82748 -9.04599 
2934539 -0.000991626 0.0865029 -0.0981451 0.00035 -0.388417 7.54527 -8.95724 
2951340 -0.00733427 0.0874503 -0.0983597 0.00025 -1.2777 7.67058 -8.95919 
2944095 -0.00081362 0.0877146 -0.0976017 0.00025 -0.389919 7.26949 -8.45592 
2940549 -0.0065126 0.0894298 -0.0987014 0.00025 -1.08234 7.83087 -8.97279 
2925491 -0.00163818 -0.0238736 -0.0989205 0.00025 -0.57683 -2.9042 -10.8342 
2946604 -0.00581985 0.0769919 -0.097613 0.00025 -1.15446 6.43469 -8.997 
2927350 -0.00126587 0.0805487 -0.0977942 0.00035 -0.568902 7.14279 -9.14416 
2942802 -0.0080262 0.0879631 -0.0968898 0.00025 -1.3527 7.69769 -8.8351 
2953709 -0.00137261 -0.0158242 -0.097371 0.00025 -0.651923 -1.71994 -9.98036 
2932363 -0.000472984 -0.0130849 -0.0969997 0.00025 -0.380485 -1.21956 -10.1615 
2918506 -0.00518273 0.0861534 -0.0958777 0.00035 -1.10464 7.73591 -8.8869 
2943468 -0.0136759 0.0881646 -0.0960544 0.00025 -2.16471 7.8272 -8.82962 
2929286 -0.00552286 0.0975714 -0.0961927 0.00025 -0.915648 8.64271 -8.58081 
2912656 -0.00275851 -0.0976842 -0.0941303 0.00045 -0.132262 -8.65014 -8.48495 
2921604 -0.00445808 0.0867007 -0.0932217 0.00035 -0.959763 7.83301 -8.70802 
2946961 -0.00407749 0.099161 -0.0935863 0.00025 -0.735044 8.83997 -8.28637 
2938969 -0.00195795 0.00862287 -0.0957313 0.00035 -0.0377737 1.30657 -12.3742 
2925845 -0.00182685 0.0839053 -0.0920069 0.00035 -0.643646 7.48572 -8.46071 
2933036 -0.00534415 0.0093571 -0.0951236 0.00045 -0.636425 1.30182 -12.27 
2924266 -0.00391535 0.0104118 -0.0941897 0.00045 -0.31157 1.4229 -12.2588 
2942092 -0.00300721 0.0730477 -0.0909858 0.00025 -0.689229 6.08246 -8.21716 
2923070 -0.0065323 0.0889416 -0.0915958 0.00035 -1.33714 8.06434 -8.49411 
2945850 -0.0129936 0.0907115 -0.0916284 0.00025 -2.02807 8.05059 -8.22533 
2943139 -0.00834521 0.0982803 -0.0907034 0.00025 -1.41967 8.92518 -8.06652 
2950505 -0.00109749 0.0089813 -0.0931959 0.00035 0.192454 1.36766 -12.228 
2930126 -0.00225506 0.0136075 -0.0929685 0.00045 -0.0686981 1.84363 -12.1947 
2925964 -0.00798402 0.0922403 -0.0902385 0.00035 -1.47333 8.03178 -7.94263 
2921362 -0.00612351 -0.00144554 -0.0923842 0.00045 -0.920904 -0.053385 -12.0829 
2921381 -0.00206128 0.00718217 -0.0922386 0.00045 -0.0203772 1.02011 -12.2387 
2930117 -0.00517426 0.023538 -0.091678 0.00045 -0.716475 2.99139 -11.9104 
2941734 -0.00116861 0.00648615 -0.0911203 0.00045 0.177253 1.09136 -12.2604 
2930290 -0.00179402 0.0853574 -0.0880194 0.00035 -0.632773 7.71974 -8.09007 
2927506 -0.00872741 0.094592 -0.0869679 0.00025 -1.45496 8.53145 -7.61732 
2924287 -0.000828604 -0.0116615 -0.0900945 0.00045 -0.0135547 -1.56915 -12.3058 
2935883 -0.0059393 0.000264269 -0.0903433 0.00055 -0.726196 0.180266 -12.0024 
2925855 -0.00143694 0.100779 -0.086583 0.00035 -0.445268 9.21889 -7.5499 
2959045 -0.000856821 -0.0184045 -0.0882889 0.00025 -0.0467057 -2.56453 -11.6455 
2944674 -0.0017084 0.022321 -0.0885773 0.00035 0.0523027 2.84982 -11.5921 
2941995 -0.0017708 0.0723364 -0.0859123 0.00025 -0.559551 6.25313 -8.18107 
2948012 -0.00696661 0.0852637 -0.0856822 0.00025 -1.33088 7.74872 -7.84897 
2949924 -0.0126706 0.0919425 -0.0852031 0.00025 -2.06864 8.24325 -7.5292 
2943163 -0.110553 -0.00149145 0.01975 0.00045 10.8842 -0.318348 -2.02146 
2941814 -0.00160004 0.0282008 -0.0872716 0.00035 0.0216789 3.67361 -11.6033 
2915525 -0.00660927 0.000328543 -0.0854899 0.00055 -0.834892 0.185809 -11.5212 
2936996 -0.00226461 0.083353 -0.0813816 0.00025 -0.693156 7.64391 -7.47321 
2921358 -0.00146292 0.0308702 -0.0837275 0.00045 0.118755 4.07217 -11.1835 
2927394 -0.000452904 0.0852065 -0.0811879 0.00035 -0.444718 8.12358 -7.64627 
2931519 -0.000248505 0.0317184 -0.0814796 0.00055 0.281263 4.43554 -11.1009 
2948422 -0.0017428 0.0867882 -0.0782366 0.00025 -0.525435 8.1513 -6.97988 
2932136 -0.00371682 0.0896146 -0.07628 0.00025 -0.93761 8.43794 -6.72998 
2948023 -0.00128124 0.0622397 -0.0774033 0.00025 -0.850824 6.23111 -8.74775 
2919897 -0.00248156 0.0695052 -0.0787173 0.00045 -0.306453 8.53798 -9.96075 
2949653 -0.00037259 0.0710017 -0.0750513 0.00025 -0.300817 7.34223 -8.04404 
2944884 -0.000994212 0.067695 -0.0742051 0.00025 -0.70441 7.22544 -8.34364 
2944271 -0.00126013 0.0694772 -0.0748136 0.00025 -0.525541 7.18036 -7.95999 
2941968 -0.00102695 0.0707216 -0.0751989 0.00035 -0.0365046 8.71783 -9.49516 
2951528 -0.000826891 -0.0105005 -0.0754272 0.00025 -0.947951 -1.27521 -10.1611 
2939013 -0.000546521 0.0717097 -0.0746051 0.00035 0.0544091 8.97227 -9.60273 
2935978 -9.39881e-05 0.0665971 -0.0734499 0.00035 -0.0490695 8.00406 -8.95258 
2942609 -0.000797691 0.0705163 -0.0726446 0.00025 -0.647361 7.81179 -8.17162 
2959209 -0.00194159 0.0602435 -0.0717528 0.00045 -0.174762 7.73585 -9.47199 
2921345 -0.00860411 0.0645694 -0.0720062 0.00055 -1.3274 8.23206 -9.42075 
2953366 -0.00448549 0.062774 -0.0710315 0.00045 -0.559791 8.14667 -9.37511 
2948075 -0.000164256 0.0621903 -0.070813 0.00025 0.278807 7.94915 -9.24038 
2950688 -0.00164991 0.06325 -0.0700745 0.00035 -0.116791 7.89833 -9.05468 
2933033 -0.00604137 0.0665363 -0.0695525 0.00045 -0.944819 8.50458 -9.08439 
2921377 -0.000328513 0.0754296 -0.068913 0.00045 0.0263222 9.16167 -8.41495 
2934422 -0.00302482 0.0646808 -0.0689748 0.00055 -0.336109 8.46551 -9.28992 
2937376 -0.00286775 0.0738662 -0.068709 0.00045 -0.384485 9.51237 -8.90188 
2943690 -0.00217722 -0.0910917 -0.0653513 0.00025 -1.73731 -9.19824 -6.31045 
2930897 -0.00217861 0.0961455 -0.0645247 0.00025 -1.72174 7.71537 -6.60038 
2921376 -0.00216361 0.0685162 -0.064037 0.00045 -0.221226 8.96439 -8.48363 
2939567 -0.00134374 0.0937368 -0.0620418 0.00025 -1.35333 7.01396 -5.99784 
2947247 -0.00193727 0.0602019 -0.0611512 0.00025 -0.768725 8.03571 -8.03205 
2922787 -0.00148552 0.0659897 -0.0611666 0.00055 -0.181877 9.02135 -8.41459 
2939492 -0.00028827 0.0665835 -0.0598039 0.00025 -0.293501 9.42156 -7.96857 
2922014 -0.00199305 0.0529634 -0.0582425 0.00025 -1.37926 7.06275 -8.58128 
2932965 -0.000200613 0.082133 -0.05297 0.00055 0.715146 10.1571 -6.57272 
2915520 -0.00209888 0.0881998 -0.0530056 0.00055 -0.0719643 10.5529 -6.41718 
2927818 -0.00140678 0.0529175 -0.0522693 0.00025 -1.11963 7.17486 -7.17896 
2924407 -9.93639e-05 0.0279302 -0.0505959 0.00035 0.868977 5.80591 -11.1137 
2932981 -0.00113142 0.00324303 -0.0498087 0.00055 -0.183234 1.00276 -12.5206 
2946864 -0.00212321 0.0474501 -0.0443669 0.00025 -2.2083 8.3506 -7.49865 
2945153 -0.000228085 -0.101513 -0.0352825 0.00025 0.247759 -10.9112 -4.06697 
2935878 -0.000389016 0.0339346 -0.0387804 0.00055 -0.147213 7.93216 -9.38251 
2925648 -0.000159196 0.0748887 -0.0347085 0.00025 0.618864 10.8407 -4.61816 
2947529 -3.9905e-06 0.0375398 -0.0379296 0.00045 0.248003 8.52997 -9.11856 
2945578 -0.000496713 0.071384 -0.0331931 0.00025 -0.191447 10.1958 -4.54808 
2956231 -0.000176786 0.034492 -0.0322714 0.00055 0.0392924 8.91185 -8.57373 
2952006 -4.09349e-05 0.0452235 -0.0288779 0.00035 0.238211 10.1768 -6.61423 
2957174 -0.000183853 0.0741909 -0.025707 0.00025 0.232014 11.0543 -3.46482 
2918447 -0.00102961 -0.0478526 -0.0266259 0.00045 0.120426 -10.4325 -6.115 
2950580 -0.000266443 0.0471774 -0.0262925 0.00035 0.485131 10.6213 -6.11667 
2918437 -0.000515325 0.021493 -0.0273223 0.00055 -0.375739 7.61179 -10.1558 
2938479 -0.0019685 -0.0743782 -0.017768 0.00025 -2.06502 -10.9275 -3.18537 
2961030 -1.37693e-05 0.039053 -0.0209287 0.00025 0.315623 10.6449 -5.99961 
2938798 -0.00179297 -0.0857661 -0.0165421 0.00045 -0.13479 -11.5177 -2.31011 
2933906 -0.00132669 -0.0683575 -0.0170431 0.00025 -1.41141 -9.45066 -3.2183 
2924261 -0.00012196 -0.0412839 -0.0186694 0.00045 0.197168 -11.0257 -5.53014 
2937661 -0.000197541 0.0193353 -0.0227038 0.00025 0.0597782 7.41743 -9.8934 
2956189 -0.00152811 -0.0682588 -0.0165203 0.00025 -1.37211 -9.18073 -3.16906 
2933230 -0.000249818 0.021032 -0.0213993 0.00035 -0.0166743 8.89783 -9.73914 
2951903 -0.00126476 0.0510277 -0.0170427 0.00045 0.271315 10.856 -3.87546 
2954821 -0.000494376 0.0510385 -0.0154534 0.00045 0.620302 11.2939 -3.40429 
2924258 -8.6042e-05 0.0565359 -0.0145537 0.00045 0.420788 11.2958 -2.74535 
2943199 -0.000792122 0.0575381 -0.0149458 0.00045 0.484101 11.4234 -3.08722 
2923897 -0.00161323 -0.0724228 -0.0131643 0.00025 -1.57914 -10.2314 -2.30445 
2940300 -8.55058e-05 -0.0532027 -0.0141491 0.00045 0.669263 -11.7482 -3.46929 
2944648 -0.000384323 0.0259946 -0.0180764 0.00045 -0.123389 10.6723 -7.44719 
2967464 -0.00179449 -0.0763805 -0.0124537 0.00025 -1.72007 -11.4015 -2.26118 
2968388 -0.000138088 -0.0279969 -0.0153388 0.00025 0.13598 -10.2854 -6.25585 
2952067 -0.112141 0.0105077 0.00952119 0.00035 10.9484 -0.884586 -1.08067 
2943160 -0.110975 0.0100502 0.00914306 0.00045 11.2857 -0.804286 -1.10333 
2942762 -0.000915162 0.0587483 0.0951173 0.00025 -1.07809 5.7539 8.53491 
2950528 -8.63811e-05 0.0519174 -0.0124717 0.00035 1.17454 11.2376 -2.79244 
2944653 -0.000847001 0.0533895 -0.0129524 0.00045 0.504531 11.3167 -2.88045 
2935924 -0.00013771 -0.0498651 -0.0108648 0.00045 0.285328 -11.5872 -2.78315 
2934463 -0.108993 0.0100862 0.0107648 0.00045 11.6538 -0.923552 -1.03356 
2947243 -0.000980616 -0.00231442 -0.0124167 0.00025 8.88131 -1.14879 -8.28794 
2929756 -0.000859336 -0.000903695 -0.0124829 0.00025 8.90573 -0.953999 -8.34115 
2958099 -0.000301568 0.000414226 -0.0127058 0.00025 8.13533 0.879613 -8.61959 
2934689 -0.000304873 0.00126447 -0.0124726 0.00035 8.46627 1.00832 -8.50654 
2935035 -0.000192842 0.064898 0.10058 0.00025 -0.326396 5.84438 7.56136 
2940369 -0.000242733 -0.0223758 0.0960848 0.00035 -0.249745 -2.83383 9.71152 
2923283 -0.000872449 -0.022589 0.0922205 0.00025 -0.400168 -3.09153 9.55823 
2931106 -0.000348888 0.0391329 0.0925452 0.00025 -0.541871 3.86682 9.33587 
2949914 -8.876e-05 0.000271801 0.0923303 0.00025 0.413879 -1.0825 9.8086 
2940455 -0.109216 -0.010094 0.00768862 0.00035 11.5461 0.857567 -0.854133 
2937328 -0.109268 0.0100964 0.00973914 0.00055 11.3929 -0.933012 -0.98662 
2953617 -0.000660211 -0.0239158 0.0888272 0.00025 -0.979994 -2.6394 10.345 
2931161 -0.000117676 0.088359 0.0815573 0.00025 -0.196842 7.35378 5.69467 
2940728 -0.000135709 0.0481177 0.0795868 0.00025 0.00583125 6.30911 7.88541 
2951793 -0.000906092 -0.0457544 0.083454 0.00025 -0.94346 -6.82992 8.4705 
2920248 -0.000427901 0.0220098 -0.014058 0.00025 -0.133278 9.43527 -6.49729 
2959862 -3.85075e-05 0.0517848 -0.0107316 0.00025 0.667113 10.7862 -2.57693 
2942644 -0.000344418 -0.0374907 0.0746694 0.00025 -0.910878 -5.94457 8.86333 
2937335 -0.108563 -6.96013e-05 -0.000127365 0.00055 11.8715 0.221838 -0.447582 
2946135 -0.108733 -0.000916404 -0.000667406 0.00035 11.766 0.0303947 -0.0696937 
2947467 -0.11114 -0.00998371 0.00667367 0.00025 11.7915 0.79109 -0.502885 
2934418 -0.113337 -0.0103931 0.00940691 0.00055 10.6245 0.810316 -0.77049 
2954567 -7.57593e-05 -0.019847 0.0744199 0.00025 0.628141 -3.20079 9.42689 
2956718 -0.000336012 -0.0161001 0.0716131 0.00025 -0.443251 -3.56145 9.6299 
2949693 -0.00710058 -0.00217255 -0.008825 0.00025 15.5106 -0.0395167 -2.68725 
2954390 -0.000283898 -0.0117068 0.0669774 0.00025 -0.297626 -2.524 9.84749 
2935127 -0.00635631 0.000145729 -0.0089943 0.00025 14.9133 0.145956 -2.73329 
2919896 -0.00109054 0.00115492 -0.0111167 0.00045 9.8111 0.845597 -7.18451 
2940553 -0.000582278 0.000619175 -0.0122343 0.00025 8.06422 0.974765 -8.25887 
2952332 -0.000246126 0.000742029 -0.0117269 0.00025 8.69787 0.486804 -8.44246 
2947399 6.44762e-05 0.0011034 -0.0119976 0.00025 8.44328 0.828256 -8.41368 
2940267 0.000117332 0.00116336 -0.0108561 0.00045 8.81633 0.785182 -7.60494 
2925540 -0.000846543 0.0580901 0.0942705 0.00025 -1.08998 5.40772 8.63548 
2920000 -0.00140125 0.00196352 -0.0109149 0.00035 8.68794 1.10909 -7.12874 
2946164 -0.000352943 0.0018486 -0.0110555 0.00035 9.37887 0.70099 -8.00557 
2939780 -0.000337174 0.0773714 0.0622515 0.00025 -0.0386972 6.89745 5.43158 
2969983 -0.000385505 -0.00776768 0.0450503 0.00025 -0.322297 -2.09106 10.839 
2924410 -0.00059584 0.0493954 -0.0103597 0.00035 0.775651 11.1903 -3.01125 
2957607 -8.06374e-05 0.0490103 -0.0104864 0.00025 1.18374 10.7576 -2.78192 
2920045 -0.000372492 -0.0523706 -0.00799068 0.00035 0.722056 -11.8904 -2.28133 
2949864 -0.000166203 -0.091205 0.0382256 0.00025 0.0858391 -9.2126 4.21063 
2950474 -0.00132223 -0.0473843 -0.00895976 0.00045 -0.264145 -11.8989 -2.43143 
2960468 -0.000246169 -0.0447041 -0.00829419 0.00025 0.715134 -11.5866 -2.42182 
2922799 -0.000452648 -0.0423401 -0.00943368 0.00055 -0.134595 -11.9087 -2.84431 
2940234 -0.109837 0.00988292 0.0088268 0.00055 11.3771 -1.11878 -0.96036 
2952239 -0.00746655 -0.00279638 -0.00894543 0.00025 16.0474 -0.126841 -2.4875 
2950216 -0.00231764 -0.00383534 -0.00909872 0.00025 10.6141 -2.57533 -6.2181 
2920819 -0.000278175 -0.0165704 0.0387075 0.00025 -0.0782887 -4.69296 10.213 
2952920 -0.00738608 -0.00198154 -0.00844373 0.00025 15.4435 -0.410077 -3.52914 
2949262 -0.000201454 -0.0238039 0.0946359 0.00025 0.444216 -3.00185 8.74911 
2947088 -0.000335708 -0.000515056 -0.0106749 0.00025 8.3994 -0.84527 -7.83583 
2935404 -0.000732957 0.000978635 -0.0105505 0.00025 9.70527 0.799871 -7.14083 
2928813 -0.00669682 0.00123658 -0.00848683 0.00035 15.3078 0.356024 -2.85666 
2955046 -0.000579302 0.00251968 -0.00987731 0.00035 9.48783 0.844553 -6.8772 
2951944 0.000157152 0.0022919 -0.0109969 0.00035 8.28492 1.4279 -8.33135 
2940891 -0.000417348 -0.0178277 0.0935605 0.00025 -0.250574 -2.55489 10.1112 
2938553 -0.00018929 0.0189393 0.0896341 0.00025 -0.232581 2.75414 10.3052 
2950554 -0.0002485 0.0483195 -0.00949369 0.00035 0.496025 11.3429 -2.71449 
2936049 -0.000726114 0.0486976 -0.00915277 0.00035 0.700089 11.4564 -2.55111 
2952334 -0.109739 -0.00798736 0.00533534 0.00025 11.7384 0.794666 -0.623249 
2938950 -0.000656076 -0.0202436 0.0839836 0.00035 -1.01591 -3.09605 10.4556 
2939723 -0.000633116 -0.0446102 0.0761522 0.00025 -0.690675 -5.60794 9.04036 
2927403 -8.7365e-05 -0.0509758 -0.00767433 0.00035 1.02112 -11.7714 -2.31677 
2962494 3.70937e-05 -0.0477003 -0.00771798 0.00025 1.37663 -11.9734 -2.32607 
2940021 -0.000759106 -0.0424929 0.0740416 0.00025 -0.923761 -5.63629 8.83484 
2955092 6.70644e-06 -0.04462 -0.00662814 0.00025 0.474908 -11.6494 -1.80662 
2970094 -0.000137906 -0.0399809 -0.00694226 0.00025 -0.0533534 -10.992 -2.26743 
2972187 -0.000113555 -0.0408225 -0.00817725 0.00025 0.110809 -11.2586 -2.63915 
2933640 -0.00017555 -0.0395833 -0.00763995 0.00025 0.489394 -11.0851 -2.47436 
2935668 -0.000204355 -0.0263964 -0.00878325 0.00025 0.334594 -10.5267 -4.23921 
2964250 -0.0001745 0.0333896 0.0300519 0.00025 0.0525978 8.57418 7.39994 
2933659 -0.000430756 0.0359391 0.0252572 0.00025 0.114889 9.60383 6.68739 
2931238 -0.000662623 -0.0420523 0.0725073 0.00025 -0.667791 -5.37482 8.91757 
2941110 -0.0204919 -0.00241527 -0.0075083 0.00025 16.3454 0.315087 -1.65454 
2931511 -0.0201822 -0.00251768 -0.00678008 0.00055 16.3348 0.107552 -1.7161 
2956033 -0.0175571 -0.00305498 -0.00622403 0.00025 16.6147 -0.0795066 -1.32527 
2952297 -0.020114 -0.00150865 -0.00701781 0.00025 16.5929 0.0817618 -1.82599 
2952338 -0.019116 -0.00201337 -0.00747303 0.00025 16.702 -0.00561055 -2.23098 
2952984 -0.0188196 -0.00157306 -0.00691423 0.00025 16.7877 -0.00172859 -2.02086 
2941498 -0.0185559 -0.00116546 -0.0070801 0.00025 16.8488 0.0937482 -1.79928 
2920633 -0.0145846 -0.00190367 -0.00772222 0.00025 16.6985 -0.0561103 -2.56104 
2934541 -0.0139443 -0.00170716 -0.00788136 0.00035 16.6639 -0.160118 -3.07355 
2928882 -0.00290143 -0.00261081 -0.00805276 0.00035 12.5267 -0.999219 -4.76861 
2925839 -0.00240599 -0.00280307 -0.00760693 0.00035 12.264 -1.67667 -4.95145 
2951919 -0.000974563 -0.00207399 -0.00887515 0.00045 11.1275 -0.915593 -6.58427 
2925748 -0.0214289 -0.000675547 -0.00693772 0.00045 16.3974 0.0456092 -1.39149 
2925707 -0.0095237 -0.000735405 -0.00586788 0.00055 15.9938 -0.0917063 -1.46379 
2925753 -0.00574668 -0.0008657 -0.00728957 0.00045 15.031 -0.304347 -3.10625 
2929326 -0.00390154 -0.000396959 -0.00636024 0.00025 12.9171 -0.626465 -3.38422 
2931746 -0.00131125 -0.00114001 -0.00887316 0.00035 10.7631 -0.85796 -6.52827 
2936995 -2.04444e-05 -0.0624667 0.102095 0.00025 -0.0300101 -6.09147 8.41404 
2945999 -0.000541204 0.0615634 0.0992055 0.00025 -0.885921 5.31 7.97173 
2955774 -0.0254984 0.000916721 -0.006544 0.00025 16.4996 0.117459 -1.88763 
2948076 -0.000679356 0.0271035 0.0245581 0.00025 -0.596776 8.63343 7.4844 
2950364 -0.0323726 0.00137456 -0.00649368 0.00025 16.5442 -0.0197188 -1.22374 
2928820 -0.0179334 0.00159876 -0.00699784 0.00035 16.8421 0.387451 -1.48855 
2937399 -0.00851531 0.00132573 -0.00749254 0.00045 15.7025 0.316365 -2.68981 
2925771 -0.000578224 0.0144977 0.0147631 0.00035 -0.530027 8.02782 7.58718 
2949454 -0.00093802 0.00427855 0.0278837 0.00025 -0.876843 2.20792 11.8087 
2930054 -5.80888e-05 0.0113631 0.0636405 0.00055 -0.065056 1.96776 10.8409 
2951306 -0.00039558 0.0273538 0.0226677 0.00025 -0.317869 9.14916 7.26255 
2946208 -0.113229 -0.00966808 0.0056467 0.00035 11.1255 0.766122 -0.516784 
2920644 -0.000264921 0.0213915 0.100305 0.00025 -0.388969 2.33764 9.79556 
2948018 -0.000585868 -0.0841101 0.0557672 0.00025 -0.657513 -8.55878 4.02298 
2921401 -0.00175055 0.0480063 -0.00720575 0.00045 0.425815 10.9653 -2.13862 
2923340 -0.000174194 0.0781353 0.108597 0.00025 -0.227796 5.499 8.43705 
2956307 -0.000194454 -0.0468214 -0.00636528 0.00035 0.406645 -11.9446 -1.90842 
2932967 -0.000290251 -0.0459345 -0.00634907 0.00055 -0.103248 -11.9855 -1.8612 
2965176 -2.09356e-05 -0.0439555 -0.00615378 0.00035 0.339239 -11.5554 -1.974 
2919131 -0.00012949 -0.0414411 -0.00649259 0.00025 0.121245 -11.7996 -2.17191 
2940243 -0.112718 -0.00913298 0.00513675 0.00055 11.0266 0.70994 -0.688727 
2927682 -0.000421659 0.0315194 0.0268612 0.00025 -0.398421 8.8561 7.32247 
2927207 -0.00134847 -0.00969574 0.022292 0.00045 -1.68422 -4.61567 9.46836 
2921917 -0.000647294 0.0587047 0.0945614 0.00025 -0.964837 5.56461 8.46544 
2956049 -0.000548141 0.004539 0.0221039 0.00025 -1.31959 2.27614 11.1372 
2959125 -0.0144755 -0.00594345 -0.00588918 0.00025 16.6455 -0.842552 -2.28851 
2933762 -0.000744639 0.0579583 0.0937874 0.00025 -1.1081 5.38601 8.59866 
2918841 -0.000861349 0.0579201 0.0925452 0.00025 -1.28989 5.26215 8.4847 
2945420 -0.00016344 0.0505028 0.0458106 0.00025 -0.0952548 8.01449 6.92886 
2935056 -0.0177792 -0.00383168 -0.00614389 0.00025 16.6325 -0.00672605 -1.45046 
2931590 -0.014853 -0.00435812 -0.00665124 0.00035 16.6028 -0.0332909 -2.59022 
2952352 -0.0179337 -0.00285704 -0.00592329 0.00025 16.5891 -0.164039 -1.46796 
2958318 -0.0187697 -0.00301712 -0.00543958 0.00025 16.7237 -0.0762033 -1.63914 
2934531 -0.0174839 -0.00258404 -0.00552344 0.00035 16.496 -0.0721958 -1.2556 
2947494 -0.0170588 -0.00261453 -0.00510133 0.00025 16.6137 -0.0713834 -1.36187 
2944343 -0.0157481 -0.00287549 -0.00510515 0.00025 16.6363 0.230879 -1.40142 
2956110 -0.0108145 -0.00216125 -0.00496029 0.00025 16.4781 0.238917 -0.554177 
2944273 -0.00691288 -0.00415741 -0.00647697 0.00025 15.5639 -1.30951 -3.59828 
2949179 -0.027008 -0.00169173 -0.00534748 0.00035 16.4291 -0.0471377 -1.67838 
2949576 -0.0220236 -0.00194848 -0.00548187 0.00025 16.6619 0.0957676 -1.59378 
2943896 -0.0195665 -0.00184933 -0.00653797 0.00025 16.6786 0.074541 -2.05503 
2934889 -0.0182584 -0.00180479 -0.00573837 0.00025 16.7044 -0.0233605 -1.56404 
2925887 -0.0178595 -0.00160206 -0.00529424 0.00035 16.6363 0.00176755 -1.3724 
2952448 -0.0171886 -0.00180325 -0.0052668 0.00025 16.6123 0.0771641 -1.03596 
2952512 -0.00828402 -0.00146108 -0.00663127 0.00025 15.5556 -0.160439 -3.06715 
2950044 -0.00443687 -0.00146372 -0.00487848 0.00025 13.113 -0.524948 -1.83167 
2922829 -0.00421178 -0.00163848 -0.0055156 0.00045 13.6467 -0.631939 -1.65415 
2917166 -0.0037104 -0.00222777 -0.00575832 0.00035 12.6451 -0.616763 -2.29449 
2935400 -0.000405787 0.0259688 0.0162144 0.00025 -0.460633 10.3427 6.26416 
2929399 -0.00026731 0.0628068 0.0996332 0.00025 -0.504265 5.18237 7.36981 
2956188 -0.0379066 -0.000187474 -0.00533372 0.00025 16.6634 -0.146523 -1.54563 
2943347 -0.03333 -0.000270896 -0.00552344 0.00035 16.5914 -0.0187595 -1.22261 
2949428 -0.0313812 -0.000371923 -0.00520846 0.00025 16.6746 -0.244092 -1.60184 
2937358 -0.0282994 -0.000689234 -0.0053556 0.00045 16.4847 0.235512 -0.941892 
2956100 -0.0255352 -0.000914166 -0.00519387 0.00025 16.3943 -0.0152297 -1.4147 
2950280 -0.0205713 -0.000785713 -0.00637255 0.00025 16.9111 0.178942 -2.05961 
2925694 -0.0193007 -0.000844854 -0.00616621 0.00055 16.4923 0.0197888 -1.95817 
2944465 -0.0134704 -0.000772244 -0.00656789 0.00025 17.1685 -0.120896 -3.29873 
2935027 -0.00233895 -0.00111728 -0.00771425 0.00025 11.3716 -0.643227 -6.0328 
2946312 -0.000586149 -0.0154559 0.0907414 0.00035 -0.685017 -1.98662 10.2923 
2940413 -0.0333372 0.000898079 -0.00551571 0.00035 16.5345 -0.113741 -1.52978 
2946965 -0.0318969 0.00110329 -0.00657471 0.00025 16.8277 0.100115 -2.00972 
2944009 -0.0278598 -8.48164e-05 -0.00597619 0.00025 16.7261 -0.115887 -1.23756 
2952933 -0.0281898 0.00047593 -0.00515217 0.00025 16.4204 0.090115 -1.09896 
2935046 -0.0277683 0.000311559 -0.00629346 0.00025 16.6277 -0.30357 -1.6637 
2947062 -0.0273475 -1.57644e-06 -0.00635132 0.00025 16.6914 -0.0954836 -1.6833 
2922840 -0.0274442 0.000621908 -0.00575843 0.00045 16.5318 -0.0933128 -1.76681 
2958886 -0.0259824 0.00104257 -0.00531215 0.00025 16.6885 0.189512 -1.85431 
2928779 -0.00838751 0.000713711 -0.00630362 0.00035 15.8272 0.345501 -2.71139 
2938691 -0.00695202 0.00112715 -0.0063838 0.00025 15.5039 0.563718 -3.28859 
2919899 -0.00537884 0.000482802 -0.00634381 0.00045 14.7865 0.0310289 -3.29501 
2955706 -0.00035828 0.0209648 0.0115142 0.00025 -0.210299 10.3984 5.50702 
2950836 -0.000660418 -0.0229256 0.0888205 0.00025 -0.869683 -2.8275 9.98387 
2930728 -0.000123573 -0.0612772 0.0985234 0.00025 -0.197496 -5.7412 8.33339 
2938268 -0.000386522 0.0615583 0.0966272 0.00025 -0.470393 5.18619 8.70812 
2957220 -0.000858459 -0.0200384 0.0858661 0.00025 -1.14359 -2.96234 10.3018 
2942147 -0.000712603 0.0569035 0.0923117 0.00025 -1.14122 5.59504 8.40285 
2937654 -0.000460782 0.0798159 0.0861835 0.00025 -0.721751 5.78333 5.95915 
2933873 -0.000435495 0.0611685 0.09401 0.00025 -0.574344 4.56724 8.38389 
2954016 -0.000820024 0.0572964 0.0933285 0.00025 -1.0661 5.49967 8.37308 
2963284 -0.000431876 0.0485365 0.0416549 0.00025 -0.314588 7.86464 7.03339 
2961185 -0.000399253 -0.00977545 0.0450767 0.00025 -0.358685 -2.4752 10.6805 
2950131 -0.000148685 0.0235066 0.0064685 0.00025 0.147865 11.4647 2.42186 
2944251 -0.000831559 -0.0203981 0.0868942 0.00025 -1.06157 -2.83591 10.5143 
2937050 -0.000781634 -0.0188368 0.0830274 0.00025 -1.1553 -2.79535 10.4233 
2936823 -0.0002289 -0.014087 0.0952111 0.00025 -0.248596 -2.15708 9.7817 
2927723 -9.82229e-05 0.0193837 0.0411801 0.00025 0.650301 5.13529 9.56845 
2943767 -0.000827388 0.0590035 0.0941794 0.00025 -1.0646 5.42509 8.69391 
2954080 -0.000295838 -0.0107634 0.0480537 0.00025 0.116781 -2.31249 10.4638 
2952057 -0.0274163 0.00410512 -0.00595112 0.00035 16.4849 -0.107819 -2.05613 
2946367 -0.0209353 0.00385244 -0.00565922 0.00025 16.5827 -0.103007 -1.84896 
2955685 -0.00832551 0.00336294 -0.00659132 0.00025 15.6761 0.383903 -2.67626 
2938775 -0.000596809 -0.0226086 0.0878317 0.00025 -0.823713 -3.02052 10.0726 
2943794 -0.000649574 0.0564736 0.0920614 0.00025 -0.805688 5.74054 8.1424 
2920924 -0.00102973 0.0574364 0.0909361 0.00025 -1.37007 5.73273 7.8646 
2937324 -0.000932628 0.0557521 0.0901277 0.00025 -1.33371 5.33759 8.38355 
2934241 -0.000433907 0.0241771 0.039943 0.00025 -0.333213 6.04812 9.21251 
2949518 -0.000590402 -0.0104214 0.0906365 0.00025 -0.1854 -2.33064 9.6347 
2954364 -0.000618865 -0.0193254 0.082742 0.00025 -1.06004 -2.86465 10.5911 
2947178 -0.000541228 -0.0123149 0.0909587 0.00025 -0.113588 -2.4731 10.057 
2921549 -0.000659806 0.0257075 0.0212216 0.00035 -0.431817 9.01427 6.98673 
2952785 -0.000257571 -0.0216536 0.0326653 0.00025 0.0412639 -6.30784 9.7763 
2941671 -0.000469625 -0.0211747 0.0823606 0.00025 -0.987706 -2.83936 10.5457 
2956540 -0.000332325 0.0515039 0.0803298 0.00025 -0.175616 6.50391 8.23983 
2943277 0.000201344 0.0103826 -0.00689344 0.00035 7.84367 6.78155 -4.99699 
2968369 -0.000892749 0.0176684 0.0228438 0.00025 -0.63106 7.17529 8.6272 
2943057 -0.000134777 0.0461567 -0.00651353 0.00025 0.539917 11.5232 -2.25394 
2940897 -0.000788506 -0.0235319 0.0884134 0.00025 -0.988393 -2.40777 10.3783 
2966672 -0.000672066 -0.0441124 -0.00512438 0.00035 -0.0237516 -12.1157 -1.82114 
2919963 -0.000509959 -0.0292919 -0.00525919 0.00035 -0.124299 -11.5566 -2.33633 
2943473 -0.000426126 -0.0827659 0.0428673 0.00025 -0.367907 -10.0661 4.24797 
2945472 -0.000134835 -0.0217415 0.093106 0.00025 0.0567901 -3.11862 9.51647 
2927426 -0.000180082 0.0605596 0.0962788 0.00035 -0.480986 5.42994 7.92953 
2946249 -0.000348411 -0.0122943 0.0847323 0.00035 -0.842585 -1.58442 10.5248 
2935890 -0.000677697 0.0282643 0.00464163 0.00045 -0.842662 12.018 1.6331 
2954303 -0.000690851 -0.0200498 0.0877303 0.00025 -0.832117 -2.68394 10.2403 
2962798 2.84858e-06 0.0712783 0.0259581 0.00025 0.677344 9.49293 3.40271 
2960422 -0.000444194 -0.0417477 0.0812475 0.00025 -0.901632 -5.92062 8.9783 
2935839 -0.0166682 -0.00707389 -0.00475473 0.00025 16.7195 0.0417956 -1.66584 
2944109 -0.000702005 -0.00962325 -0.0058317 0.00025 8.30282 -6.12262 -4.60848 