ITEM: TIMESTEP
955880
ITEM: NUMBER OF ATOMS
32119
ITEM: BOX BOUNDS ff ff ff
-0.705 0.705
-0.1016 0.1016
-0.11 0.11
ITEM: ATOMS id x y z radius vx vy vz 
2946112 -0.122511 -0.0105746 0.00704212 0.00045 9.91854 0.724598 -0.551018 
2946175 -0.120522 -0.0105375 0.00691699 0.00035 10.242 0.816582 -0.539256 
2952373 -0.123455 -0.0113785 0.00932208 0.00025 9.8923 0.747616 -0.851918 
2956118 -0.137503 -0.0123822 0.00983006 0.00025 8.34025 0.687955 -0.829084 
2949779 -0.139831 -0.00936768 0.0104856 0.00025 8.09567 0.390891 -0.535658 
2951877 -0.111633 0.00155177 0.0200308 0.00055 11.0876 -0.175989 -1.86599 
2946572 -0.000364787 0.0716067 -0.109618 0.00025 -0.317221 4.8034 -9.48088 
2944296 -0.000128501 0.0778922 -0.107869 0.00025 -0.0941559 5.30638 -8.85595 
2943516 -0.00294814 0.0967516 -0.108735 0.00025 -0.576753 7.51224 -8.84998 
2941485 -0.00331318 0.0730956 -0.108018 0.00025 -0.658579 5.97356 -10.2275 
2944345 -0.000337852 0.0811353 -0.107484 0.00025 -0.191545 5.82333 -8.96989 
2937665 -0.00281357 0.0831173 -0.107128 0.00025 -0.596669 6.06802 -8.8843 
2938267 -0.00140849 0.0847645 -0.107403 0.00025 -0.310118 6.92278 -9.51192 
2923533 -0.000276737 0.0842032 -0.107362 0.00025 -0.129367 6.60348 -9.28336 
2935853 -0.00357749 -0.000580037 -0.107938 0.00025 -1.19379 0.710837 -11.3275 
2919402 -0.00336655 0.0691217 -0.107793 0.00025 -0.718056 5.61801 -10.1931 
2932257 -0.00715548 0.0786916 -0.106767 0.00025 -1.28472 6.66624 -9.97819 
2937719 -0.00704363 0.082506 -0.107419 0.00025 -1.12496 7.04315 -9.91175 
2932534 -0.000713729 0.0841391 -0.107081 0.00025 -0.327499 6.64618 -9.43041 
2938215 -0.00149194 0.0843695 -0.106293 0.00025 -0.552924 6.44555 -9.08621 
2939976 -0.00310891 -0.0207529 -0.10726 0.00025 -1.02971 -2.55088 -11.4415 
2940146 -0.00263586 -0.0171877 -0.106431 0.00025 -0.975342 -1.99543 -11.0924 
2932210 -0.00241034 0.0827393 -0.105373 0.00025 -0.519376 6.99658 -9.65429 
2927375 -0.000637245 0.0822355 -0.105364 0.00035 -0.22699 6.86398 -9.68704 
2949919 -0.00187982 0.0834703 -0.10474 0.00025 -0.427685 6.16839 -8.70588 
2944421 -0.00168207 0.0845106 -0.10507 0.00025 -0.5537 6.70422 -9.24028 
2933233 -0.00114756 0.0845526 -0.105814 0.00035 -0.344841 6.7688 -9.21674 
2920844 -0.000604544 0.0848565 -0.105794 0.00025 -0.239842 6.64054 -9.18428 
2944025 -0.000693284 0.0856198 -0.105687 0.00025 -0.250167 6.85434 -8.98017 
2941532 -0.00455993 0.0887617 -0.105916 0.00025 -0.747397 7.65085 -9.62521 
2951281 -0.00793228 0.0783182 -0.104007 0.00025 -1.27793 6.50207 -9.53988 
2950991 -0.00180793 0.0880094 -0.104571 0.00025 -0.37343 7.53225 -9.43091 
2935023 -0.00283727 0.0877918 -0.103983 0.00025 -0.607429 6.64345 -8.62932 
2944005 -0.00123746 0.0888186 -0.104419 0.00025 -0.259548 7.5312 -9.36631 
2957270 -0.00148253 0.000632681 -0.104301 0.00025 -0.728822 0.814743 -11.0753 
2924373 -0.00249504 0.0857617 -0.103016 0.00035 -0.580152 7.42676 -9.33912 
2931388 -0.00572456 0.0887598 -0.102114 0.00025 -0.971235 6.73679 -8.45753 
2943476 -0.0023039 0.0907446 -0.103423 0.00025 -0.418825 7.72206 -9.2408 
2941394 -0.00122187 0.0906602 -0.103206 0.00025 -0.264518 7.59645 -9.14648 
2934836 -0.000662417 -0.0976829 -0.101278 0.00025 -0.728962 -6.80556 -8.35254 
2945173 -0.00150633 -0.0219628 -0.103249 0.00025 -0.733319 -2.84132 -10.9042 
2952491 -0.00188001 -0.016659 -0.10382 0.00025 -0.946351 -1.8093 -11.3791 
2945237 -0.00544444 0.0635575 -0.102934 0.00025 -1.33702 4.93587 -9.72289 
2943073 -0.00977044 0.0867888 -0.101612 0.00025 -1.54971 7.53317 -9.27693 
2931977 -0.0104904 0.0899156 -0.101724 0.00025 -1.64341 7.90927 -9.24587 
2934767 -0.0072703 0.0925553 -0.101438 0.00025 -1.15155 8.1337 -9.17149 
2926194 -0.00057718 0.0919173 -0.102227 0.00025 -0.169637 7.72376 -8.9556 
2938188 -0.000878375 0.0921151 -0.10167 0.00025 -0.330733 7.70085 -8.95364 
2938108 -0.00612939 0.076215 -0.101295 0.00025 -1.07346 6.30447 -9.29473 
2950864 -0.00333189 -0.0143438 -0.100599 0.00025 -1.09287 -1.50148 -10.469 
2942646 -0.00641585 0.0740022 -0.0997081 0.00025 -1.13262 6.17996 -9.25521 
2944552 -0.00574276 0.0818164 -0.0998169 0.00025 -1.08797 7.10989 -9.18922 
2931880 -0.00101435 0.0893589 -0.0998799 0.00025 -0.433732 7.12906 -8.67095 
2933956 -0.000688452 0.0956854 -0.0992084 0.00025 -0.194009 8.25727 -8.75827 
2947800 -0.00182881 -0.0134506 -0.0998924 0.00025 -0.738017 -1.38834 -10.3799 
2951657 -0.00155785 -0.0108057 -0.0995563 0.00025 -0.713332 -0.854455 -10.4089 
2939020 -0.00635038 0.0797609 -0.098913 0.00035 -1.23746 6.88041 -9.09663 
2941367 -0.0013443 0.0807898 -0.0990624 0.00025 -0.476418 6.82748 -9.04599 
2934539 -0.00099551 0.0865783 -0.0982347 0.00035 -0.388417 7.54527 -8.95724 
2951340 -0.00734704 0.087527 -0.0984493 0.00025 -1.2777 7.67058 -8.95919 
2944095 -0.000817519 0.0877873 -0.0976863 0.00025 -0.389919 7.26949 -8.45592 
2940549 -0.00652343 0.0895081 -0.0987911 0.00025 -1.08234 7.83087 -8.97279 
2925491 -0.00164395 -0.0239026 -0.0990288 0.00025 -0.5768 -2.90419 -10.8342 
2946604 -0.00583139 0.0770562 -0.097703 0.00025 -1.15446 6.43469 -8.997 
2927350 -0.00127156 0.0806201 -0.0978856 0.00035 -0.568902 7.14279 -9.14416 
2942802 -0.00803973 0.08804 -0.0969782 0.00025 -1.3527 7.69769 -8.8351 
2953709 -0.00137913 -0.0158414 -0.0974708 0.00025 -0.651874 -1.71995 -9.98036 
2932363 -0.000476789 -0.0130971 -0.0971013 0.00025 -0.380498 -1.21956 -10.1616 
2918506 -0.00519377 0.0862308 -0.0959665 0.00035 -1.10464 7.73591 -8.8869 
2943468 -0.0136976 0.0882429 -0.0961427 0.00025 -2.16471 7.8272 -8.82962 
2929286 -0.00553201 0.0976579 -0.0962785 0.00025 -0.915648 8.64271 -8.58081 
2912656 -0.00275983 -0.0977707 -0.0942151 0.00045 -0.132262 -8.65014 -8.48495 
2921604 -0.00446768 0.0867791 -0.0933088 0.00035 -0.959763 7.83301 -8.70802 
2946961 -0.00408485 0.0992494 -0.0936692 0.00025 -0.735044 8.83997 -8.28637 
2938969 -0.00195833 0.00863594 -0.095855 0.00035 -0.0377693 1.30657 -12.3742 
2925845 -0.00183328 0.0839802 -0.0920915 0.00035 -0.643646 7.48572 -8.46071 
2933036 -0.00535051 0.00937012 -0.0952463 0.00045 -0.636397 1.30181 -12.2699 
2924266 -0.00391847 0.0104261 -0.0943123 0.00045 -0.311555 1.42289 -12.2587 
2942092 -0.0030141 0.0731085 -0.0910679 0.00025 -0.689229 6.08246 -8.21716 
2923070 -0.00654567 0.0890223 -0.0916807 0.00035 -1.33714 8.06434 -8.49411 
2945850 -0.0130139 0.0907921 -0.0917107 0.00025 -2.02807 8.05059 -8.22533 
2943139 -0.0083594 0.0983696 -0.0907841 0.00025 -1.41967 8.92518 -8.06652 
2950505 -0.00109556 0.00899498 -0.0933181 0.00035 0.192744 1.36769 -12.228 
2930126 -0.00225574 0.013626 -0.0930904 0.00045 -0.0683126 1.84362 -12.1946 
2925964 -0.00799876 0.0923206 -0.0903179 0.00035 -1.47333 8.03178 -7.94263 
2921362 -0.00613272 -0.00144608 -0.0925051 0.00045 -0.920839 -0.0533909 -12.0828 
2921381 -0.00206148 0.00719237 -0.092361 0.00045 -0.0199645 1.02011 -12.2386 
2930117 -0.00518143 0.0235679 -0.0917971 0.00045 -0.716436 2.99137 -11.9104 
2941734 -0.00116684 0.00649706 -0.0912429 0.00045 0.177634 1.09138 -12.2604 
2930290 -0.00180034 0.0854346 -0.0881003 0.00035 -0.632773 7.71974 -8.09007 
2927506 -0.00874196 0.0946773 -0.087044 0.00025 -1.45496 8.53145 -7.61732 
2924287 -0.000828738 -0.0116772 -0.0902175 0.00045 -0.0133102 -1.56914 -12.3057 
2935883 -0.00594656 0.000266072 -0.0904633 0.00055 -0.726146 0.180257 -12.0023 
2925855 -0.0014414 0.100871 -0.0866585 0.00035 -0.445268 9.21889 -7.5499 
2959045 -0.000857288 -0.0184301 -0.0884054 0.00025 -0.0466656 -2.56452 -11.6455 
2944674 -0.00170788 0.0223495 -0.0886933 0.00035 0.0527411 2.84981 -11.5921 
2941995 -0.0017764 0.072399 -0.0859941 0.00025 -0.559551 6.25313 -8.18107 
2948012 -0.00697992 0.0853412 -0.0857607 0.00025 -1.33088 7.74872 -7.84897 
2949924 -0.0126912 0.0920249 -0.0852784 0.00025 -2.06864 8.24325 -7.5292 
2943163 -0.110444 -0.00149471 0.0197299 0.00045 10.8888 -0.33854 -2.00122 
2941814 -0.00159982 0.0282375 -0.0873877 0.00035 0.0217326 3.67362 -11.6033 
2915525 -0.00661762 0.000330401 -0.0856051 0.00055 -0.834866 0.185797 -11.5212 
2936996 -0.00227155 0.0834294 -0.0814564 0.00025 -0.693156 7.64391 -7.47321 
2921358 -0.00146174 0.030911 -0.0838394 0.00045 0.118797 4.07216 -11.1835 
2927394 -0.000457351 0.0852878 -0.0812644 0.00035 -0.444718 8.12358 -7.64627 
2931519 -0.000245665 0.0317628 -0.0815906 0.00055 0.28665 4.44017 -11.1027 
2948422 -0.00174805 0.0868698 -0.0783064 0.00025 -0.525435 8.1513 -6.97988 
2932136 -0.0037262 0.089699 -0.0763473 0.00025 -0.93761 8.43794 -6.72998 
2948023 -0.00128975 0.062302 -0.0774908 0.00025 -0.850871 6.2311 -8.74776 
2919897 -0.00248463 0.0695906 -0.0788169 0.00045 -0.306453 8.53798 -9.96075 
2949653 -0.000375598 0.0710751 -0.0751317 0.00025 -0.300817 7.34223 -8.04404 
2944884 -0.00100126 0.0677673 -0.0742886 0.00025 -0.704326 7.22543 -8.34362 
2944271 -0.00126539 0.069549 -0.0748932 0.00025 -0.525541 7.18036 -7.95999 
2941968 -0.00102732 0.0708088 -0.0752939 0.00035 -0.0365046 8.71783 -9.49516 
2951528 -0.00083637 -0.0105132 -0.0755288 0.00025 -0.947812 -1.27516 -10.1611 
2939013 -0.000545977 0.0717994 -0.0747011 0.00035 0.0544091 8.97227 -9.60273 
2935978 -9.44784e-05 0.0666772 -0.0735394 0.00035 -0.0489962 8.00404 -8.95255 
2942609 -0.000804165 0.0705944 -0.0727263 0.00025 -0.647308 7.81174 -8.17161 
2959209 -0.00194334 0.0603209 -0.0718476 0.00045 -0.174721 7.73585 -9.47198 
2921345 -0.00861738 0.0646517 -0.0721004 0.00055 -1.32733 8.23186 -9.42053 
2953366 -0.00449109 0.0628554 -0.0711252 0.00045 -0.55974 8.14657 -9.37498 
2948075 -0.000161468 0.0622698 -0.0709054 0.00025 0.278834 7.94914 -9.24036 
2950688 -0.00165108 0.063329 -0.0701651 0.00035 -0.116764 7.89833 -9.05466 
2933033 -0.00605081 0.0666214 -0.0696433 0.00045 -0.94474 8.50445 -9.08426 
2921377 -0.00032825 0.0755212 -0.0689972 0.00045 0.0263222 9.16167 -8.41495 
2934422 -0.00302818 0.0647654 -0.0690677 0.00055 -0.336064 8.46551 -9.28989 
2937376 -0.0028716 0.0739614 -0.068798 0.00045 -0.384446 9.51231 -8.90186 
2943690 -0.00219459 -0.0911837 -0.0654144 0.00025 -1.73731 -9.19824 -6.31045 
2930897 -0.00219582 0.0962227 -0.0645907 0.00025 -1.72174 7.71537 -6.60038 
2921376 -0.00216582 0.0686059 -0.0641219 0.00045 -0.221139 8.96435 -8.48358 
2939567 -0.00135728 0.093807 -0.0621018 0.00025 -1.35333 7.01396 -5.99784 
2947247 -0.00194495 0.0602823 -0.0612316 0.00025 -0.768692 8.03567 -8.03206 
2922787 -0.00148733 0.06608 -0.0612507 0.00055 -0.181665 9.02139 -8.41462 
2939492 -0.000291205 0.0666778 -0.0598836 0.00025 -0.293491 9.42159 -7.96856 
2922014 -0.00200684 0.053034 -0.0583283 0.00025 -1.3792 7.06272 -8.58124 
2932965 -0.000193462 0.0822346 -0.0530357 0.00055 0.71506 10.1569 -6.57276 
2915520 -0.0020996 0.0883053 -0.0530698 0.00055 -0.0719643 10.5529 -6.41718 
2927818 -0.00141798 0.0529893 -0.0523411 0.00025 -1.11942 7.17496 -7.17886 
2924407 -9.06125e-05 0.0279882 -0.050707 0.00035 0.881339 5.80311 -11.1028 
2932981 -0.00113325 0.00325306 -0.0499339 0.00055 -0.182777 1.00277 -12.5206 
2946864 -0.00214529 0.0475336 -0.0444419 0.00025 -2.20817 8.35059 -7.49866 
2945153 -0.000225608 -0.101622 -0.0353232 0.00025 0.247759 -10.9112 -4.06697 
2935878 -0.000390484 0.0340139 -0.0388742 0.00055 -0.146583 7.93214 -9.38246 
2925648 -0.000152918 0.0749969 -0.0347547 0.00025 0.636675 10.814 -4.61896 
2947529 -1.45884e-06 0.0376251 -0.0380208 0.00045 0.258293 8.52719 -9.12314 
2945578 -0.000498533 0.071486 -0.0332387 0.00025 -0.172482 10.2038 -4.56501 
2956231 -0.000176393 0.0345811 -0.0323571 0.00055 0.0394645 8.91184 -8.57377 
2952006 -3.85164e-05 0.0453253 -0.028944 0.00035 0.24553 10.1762 -6.61271 
2957174 -0.000181471 0.0743015 -0.0257416 0.00025 0.244232 11.0547 -3.46176 
2918447 -0.0010284 -0.0479569 -0.026687 0.00045 0.121089 -10.4326 -6.11494 
2950580 -0.000261552 0.0472836 -0.0263536 0.00035 0.493047 10.6197 -6.11488 
2918437 -0.00051906 0.0215691 -0.0274238 0.00055 -0.371213 7.60992 -10.1567 
2938479 -0.00198915 -0.0744875 -0.0177998 0.00025 -2.06492 -10.9275 -3.18531 
2961030 -1.05924e-05 0.0391595 -0.0209887 0.00025 0.320126 10.6445 -5.99929 
2938798 -0.00179432 -0.0858813 -0.0165652 0.00045 -0.134643 -11.5171 -2.31002 
2933906 -0.0013408 -0.068452 -0.0170752 0.00025 -1.41136 -9.45068 -3.21827 
2924261 -0.000119956 -0.0413941 -0.0187247 0.00045 0.203658 -11.0263 -5.53034 
2937661 -0.000196909 0.0194094 -0.0228027 0.00025 0.0670682 7.41301 -9.89301 
2956189 -0.00154183 -0.0683506 -0.016552 0.00025 -1.37205 -9.18075 -3.16903 
2933230 -0.00024994 0.0211209 -0.0214966 0.00035 -0.00774739 8.89618 -9.73695 
2951903 -0.00126204 0.0511363 -0.0170814 0.00045 0.272001 10.8559 -3.87537 
2954821 -0.000488137 0.0511514 -0.0154874 0.00045 0.627192 11.2907 -3.40054 
2924258 -8.17918e-05 0.0566488 -0.0145811 0.00045 0.429207 11.2975 -2.73865 
2943199 -0.000787277 0.0576523 -0.0149766 0.00045 0.484923 11.4235 -3.0872 
2923897 -0.00162902 -0.0725252 -0.0131873 0.00025 -1.57894 -10.2315 -2.3044 
2940300 -7.88105e-05 -0.0533201 -0.0141838 0.00045 0.669787 -11.7482 -3.46927 
2944648 -0.000385538 0.0261014 -0.0181509 0.00045 -0.119723 10.6721 -7.44634 
2967464 -0.00181169 -0.0764945 -0.0124764 0.00025 -1.71942 -11.4011 -2.26097 
2968388 -0.000136661 -0.0281 -0.0154014 0.00025 0.149836 -10.3254 -6.27852 
2952067 -0.112032 0.0104988 0.0095104 0.00035 10.9914 -0.890585 -1.07819 
2943160 -0.110862 0.0100422 0.0091321 0.00045 11.3058 -0.790682 -1.09421 
2942762 -0.000925943 0.0588059 0.0952026 0.00025 -1.07809 5.7539 8.53491 
2950528 -7.4606e-05 0.0520298 -0.0124996 0.00035 1.1804 11.237 -2.78928 
2944653 -0.000841952 0.0535027 -0.0129812 0.00045 0.505236 11.3166 -2.88064 
2935924 -0.000134817 -0.0499809 -0.0108926 0.00045 0.293125 -11.5853 -2.78199 
2934463 -0.108877 0.010077 0.0107544 0.00045 11.6423 -0.907101 -1.05396 
2947243 -0.0008925 -0.00232591 -0.0125 0.00025 8.74122 -1.14908 -8.35658 
2929756 -0.00077098 -0.000913264 -0.0125666 0.00025 8.76477 -0.959321 -8.40856 
2958099 -0.000220727 0.000423046 -0.0127921 0.00025 8.03492 0.8837 -8.61654 
2934689 -0.000220784 0.00127467 -0.0125576 0.00035 8.33893 1.03162 -8.49026 
2935035 -0.000196106 0.0649564 0.100656 0.00025 -0.326396 5.84438 7.56136 
2940369 -0.000245231 -0.0224041 0.0961819 0.00035 -0.249703 -2.83287 9.71068 
2923283 -0.000876357 -0.0226199 0.092316 0.00025 -0.381555 -3.09761 9.53962 
2931106 -0.000354305 0.0391716 0.0926385 0.00025 -0.541631 3.86681 9.33521 
2949914 -8.4542e-05 0.000260896 0.0924284 0.00025 0.429605 -1.0985 9.8054 
2940455 -0.1091 -0.0100854 0.00768009 0.00035 11.5432 0.849894 -0.855936 
2937328 -0.109155 0.0100871 0.00972921 0.00055 11.3791 -0.921728 -1.00534 
2953617 -0.000669994 -0.0239422 0.0889307 0.00025 -0.976631 -2.63813 10.344 
2931161 -0.000119645 0.0884325 0.0816142 0.00025 -0.196842 7.35378 5.69467 
2940728 -0.000135601 0.0481807 0.0796656 0.00025 0.0158028 6.30422 7.88375 
2951793 -0.000915524 -0.0458227 0.0835387 0.00025 -0.943024 -6.82922 8.47031 
2920248 -0.000429236 0.0221041 -0.014123 0.00025 -0.134352 9.43376 -6.49819 
2959862 -3.18084e-05 0.0518926 -0.0107573 0.00025 0.672296 10.785 -2.57499 
2942644 -0.000353605 -0.0375503 0.074758 0.00025 -0.926584 -5.97035 8.8521 
2937335 -0.108444 -6.74494e-05 -0.000131783 0.00055 11.8759 0.204089 -0.433987 
2946135 -0.108616 -0.000916044 -0.000668167 0.00035 11.764 0.0411689 -0.0845394 
2947467 -0.111022 -0.00997583 0.00666863 0.00025 11.789 0.783737 -0.507683 
2934418 -0.113231 -0.010385 0.00939919 0.00055 10.6378 0.813862 -0.777224 
2954567 -6.94791e-05 -0.0198791 0.0745141 0.00025 0.627354 -3.22915 9.42172 
2956718 -0.00034104 -0.0161358 0.0717103 0.00025 -0.553574 -3.58412 9.80956 
2949693 -0.00694558 -0.00217297 -0.00885201 0.00025 15.49 -0.0442321 -2.70867 
2954390 -0.000286871 -0.011732 0.0670759 0.00025 -0.296917 -2.52294 9.84736 
2935127 -0.00620779 0.000147338 -0.0090224 0.00025 14.8039 0.175257 -2.884 
2919896 -0.00099339 0.00116348 -0.0111889 0.00045 9.59149 0.865564 -7.26554 
2940553 -0.000502988 0.000629215 -0.0123172 0.00025 7.76519 1.03574 -8.33496 
2952332 -0.000160024 0.000747015 -0.0118116 0.00025 8.49476 0.511018 -8.50029 
2925540 -0.000857443 0.0581442 0.0943568 0.00025 -1.08998 5.40772 8.63548 
2920000 -0.00131548 0.00197472 -0.0109865 0.00035 8.44128 1.13192 -7.19553 
2946164 -0.000260611 0.00185548 -0.0111358 0.00035 9.0568 0.676093 -8.06823 
2939780 -0.000337454 0.0774404 0.0623057 0.00025 -0.0171369 6.8944 5.41915 
2969983 -0.000388716 -0.00778859 0.0451586 0.00025 -0.320355 -2.09095 10.8362 
2924410 -0.000588034 0.0495073 -0.0103898 0.00035 0.78705 11.1865 -3.01095 
2957607 -6.87713e-05 0.0491179 -0.0105142 0.00025 1.18878 10.7578 -2.78027 
2920045 -0.000365194 -0.0524895 -0.0080135 0.00035 0.73756 -11.8911 -2.28182 
2949864 -0.000165241 -0.0912972 0.0382678 0.00025 0.10646 -9.2211 4.22515 
2950474 -0.00132487 -0.0475033 -0.00898408 0.00045 -0.263383 -11.8989 -2.43144 
2960468 -0.000238893 -0.04482 -0.00831846 0.00025 0.739912 -11.5941 -2.4316 
2922799 -0.000453963 -0.0424592 -0.00946214 0.00055 -0.128236 -11.9125 -2.84645 
2940234 -0.109723 0.0098718 0.00881723 0.00055 11.392 -1.10487 -0.956304 
2952239 -0.00730622 -0.00279767 -0.00897046 0.00025 16.0198 -0.131396 -2.51274 
2950216 -0.00221257 -0.00386138 -0.00916161 0.00025 10.395 -2.63375 -6.35807 
2920819 -0.000278922 -0.0166173 0.0388096 0.00025 -0.0711287 -4.6962 10.2101 
2952920 -0.00723181 -0.00198568 -0.00847913 0.00025 15.4168 -0.416732 -3.54471 
2949262 -0.000196891 -0.0238339 0.0947233 0.00025 0.468411 -3.01484 8.72713 
2947088 -0.000252434 -0.000523333 -0.0107537 0.00025 8.2376 -0.801673 -7.91261 
2935404 -0.000636871 0.000986674 -0.0106222 0.00025 9.48336 0.809008 -7.19649 
2928813 -0.00654385 0.00124015 -0.00851555 0.00035 15.2873 0.35395 -2.88209 
2955046 -0.000485395 0.00252822 -0.00994653 0.00035 9.26594 0.863769 -6.96508 
2940891 -0.000419853 -0.0178533 0.0936616 0.00025 -0.250422 -2.55472 10.1112 
2938553 -0.000191615 0.0189668 0.0897371 0.00025 -0.232569 2.75412 10.3052 
2950554 -0.000243502 0.0484329 -0.00952083 0.00035 0.50342 11.3413 -2.71502 
2936049 -0.000719074 0.0488121 -0.00917828 0.00035 0.707958 11.4568 -2.54928 
2952334 -0.109621 -0.00797948 0.00532915 0.00025 11.7474 0.778002 -0.61751 
2938950 -0.000666225 -0.0202745 0.0840882 0.00035 -1.01394 -3.0926 10.4576 
2939723 -0.000640016 -0.0446663 0.0762426 0.00025 -0.689417 -5.60384 9.03797 
2927403 -7.70908e-05 -0.0510935 -0.00769751 0.00035 1.03369 -11.7719 -2.32036 
2940021 -0.000768328 -0.0425493 0.0741299 0.00025 -0.920683 -5.62993 8.83138 
2970094 -0.000138433 -0.0400908 -0.00696494 0.00025 -0.0522504 -10.9918 -2.26731 
2972187 -0.000112441 -0.040935 -0.00820364 0.00025 0.112148 -11.2583 -2.6393 
2933640 -0.000170651 -0.0396941 -0.0076647 0.00025 0.490322 -11.0848 -2.47419 
2935668 -0.000200989 -0.0265017 -0.00882564 0.00025 0.337732 -10.5259 -4.23897 
2964250 -0.000173634 0.0334752 0.030126 0.00025 0.11804 8.55124 7.4035 
2933659 -0.000429509 0.0360351 0.025324 0.00025 0.134542 9.60175 6.68839 
2931238 -0.000669283 -0.0421061 0.0725965 0.00025 -0.665238 -5.37223 8.92283 
2941110 -0.0203284 -0.0024121 -0.00752483 0.00025 16.3419 0.318281 -1.65182 
2931511 -0.0200189 -0.0025166 -0.00679719 0.00055 16.3306 0.107954 -1.70603 
2956033 -0.0173909 -0.00305581 -0.00623729 0.00025 16.6131 -0.0844203 -1.3285 
2952297 -0.0199481 -0.00150783 -0.00703603 0.00025 16.5881 0.0821399 -1.81693 
2952338 -0.018949 -0.00201341 -0.00749532 0.00025 16.6927 -0.00304318 -2.22455 
2952984 -0.0186518 -0.00157307 -0.00693443 0.00025 16.7779 0.000379003 -2.01845 
2941498 -0.0183874 -0.00116452 -0.00709808 0.00025 16.8389 0.0956926 -1.7972 
2920633 -0.0144176 -0.00190426 -0.00774801 0.00025 16.6936 -0.0623643 -2.59882 
2934541 -0.0137777 -0.00170879 -0.00791227 0.00035 16.6589 -0.166131 -3.10949 
2928882 -0.00277731 -0.00262078 -0.00810134 0.00035 12.2853 -0.991443 -4.95456 
2925839 -0.00228417 -0.00282005 -0.00765704 0.00035 12.0964 -1.72182 -5.07604 
2951919 -0.000863827 -0.00208309 -0.00894147 0.00045 11.0056 -0.902601 -6.68659 
2925748 -0.021265 -0.000675089 -0.0069516 0.00045 16.3928 0.0461053 -1.38324 
2925707 -0.00936394 -0.000736378 -0.00588272 0.00055 15.9649 -0.101218 -1.49783 
2925753 -0.00559685 -0.000868772 -0.00732092 0.00045 14.9298 -0.310742 -3.16356 
2929326 -0.0037727 -0.00040323 -0.00639437 0.00025 12.8451 -0.628251 -3.44182 
2931746 -0.0012042 -0.00114855 -0.00893895 0.00035 10.6343 -0.846794 -6.63564 
2936995 -2.07445e-05 -0.0625276 0.102179 0.00025 -0.0300101 -6.09147 8.41404 
2945999 -0.000550063 0.0616165 0.0992852 0.00025 -0.885921 5.31 7.97173 
2955774 -0.0253334 0.000917878 -0.00656287 0.00025 16.4998 0.113465 -1.88549 
2948076 -0.000685263 0.0271899 0.024633 0.00025 -0.583917 8.63075 7.48256 
2950364 -0.0322072 0.00137436 -0.00650579 0.00025 16.5504 -0.0200436 -1.19218 
2928820 -0.017765 0.00160266 -0.00701272 0.00035 16.8364 0.390761 -1.48798 
2937399 -0.0083584 0.00132891 -0.00751959 0.00045 15.6796 0.314521 -2.71606 
2925771 -0.000583472 0.014578 0.014839 0.00035 -0.521653 8.03132 7.58217 
2949454 -0.000947697 0.0043008 0.0280022 0.00025 -1.05051 2.24817 11.8783 
2930054 -5.87384e-05 0.0113828 0.0637489 0.00055 -0.0648673 1.96812 10.84 
2951306 -0.000398741 0.0274453 0.0227403 0.00025 -0.314109 9.14646 7.26084 
2946208 -0.113118 -0.00966042 0.00564154 0.00035 11.1422 0.766112 -0.518973 
2920644 -0.000268811 0.0214149 0.100403 0.00025 -0.388969 2.33764 9.79556 
2948018 -0.000592435 -0.0841957 0.0558074 0.00025 -0.655703 -8.55934 4.02408 
2921401 -0.00174624 0.0481159 -0.00722714 0.00045 0.435389 10.9649 -2.13915 
2923340 -0.000176472 0.0781903 0.108681 0.00025 -0.227796 5.499 8.43705 
2956307 -0.000190364 -0.046941 -0.0063844 0.00035 0.411658 -11.9669 -1.91552 
2932967 -0.000291243 -0.0460544 -0.0063677 0.00055 -0.095268 -11.9799 -1.86354 
2965176 -1.74783e-05 -0.044071 -0.00617354 0.00035 0.352242 -11.5612 -1.97933 
2919131 -0.000128274 -0.0415591 -0.0065143 0.00025 0.121959 -11.7994 -2.17165 
2940243 -0.112607 -0.00912589 0.00512987 0.00055 11.0424 0.709985 -0.690784 
2927682 -0.000425378 0.031608 0.0269342 0.00025 -0.346172 8.84825 7.29338 
2927207 -0.00136518 -0.00974188 0.0223866 0.00045 -1.65651 -4.61309 9.46914 
2921917 -0.000656943 0.0587604 0.0946461 0.00025 -0.964837 5.56461 8.46544 
2956049 -0.000561353 0.00456184 0.0222153 0.00025 -1.31651 2.28468 11.1302 
2959125 -0.0143091 -0.00595195 -0.00591211 0.00025 16.6418 -0.858193 -2.29689 
2933762 -0.00075572 0.0580121 0.0938734 0.00025 -1.1081 5.38601 8.59866 
2918841 -0.000874247 0.0579727 0.09263 0.00025 -1.28989 5.26215 8.4847 
2945420 -0.000164392 0.050583 0.0458798 0.00025 -0.0951316 8.01404 6.92872 
2935056 -0.0176128 -0.00383178 -0.00615841 0.00025 16.6309 -0.0117652 -1.45314 
2931590 -0.014687 -0.00435848 -0.00667724 0.00035 16.5966 -0.0399057 -2.60831 
2952352 -0.0177679 -0.0028587 -0.00593798 0.00025 16.5875 -0.168676 -1.47051 
2958318 -0.0186025 -0.00301791 -0.00545598 0.00025 16.7218 -0.0809461 -1.64115 
2934531 -0.0173189 -0.00258479 -0.00553601 0.00035 16.4947 -0.0770214 -1.25851 
2947494 -0.0168927 -0.00261528 -0.00511496 0.00025 16.6119 -0.0763831 -1.36535 
2944343 -0.0155818 -0.00287322 -0.00511929 0.00025 16.629 0.221559 -1.42518 
2956110 -0.0106496 -0.00215886 -0.00496588 0.00025 16.4917 0.242528 -0.555272 
2944273 -0.00675741 -0.00417055 -0.00651299 0.00025 15.5313 -1.3143 -3.60494 
2949179 -0.0268437 -0.00169219 -0.00536422 0.00035 16.4347 -0.0440892 -1.67116 
2949576 -0.021857 -0.00194752 -0.00549777 0.00025 16.6569 0.0961825 -1.5852 
2943896 -0.0193998 -0.00184857 -0.00655852 0.00025 16.6689 0.0765196 -2.05253 
2934889 -0.0180914 -0.00180501 -0.00575401 0.00025 16.6947 -0.0212373 -1.56245 
2925887 -0.0176932 -0.00160203 -0.00530797 0.00035 16.6268 0.0038372 -1.37123 
2952448 -0.0170225 -0.00180248 -0.00527717 0.00025 16.603 0.0787325 -1.03775 
2952512 -0.00812865 -0.00146274 -0.00666209 0.00025 15.5244 -0.170424 -3.08949 
2950044 -0.00430626 -0.001469 -0.00489683 0.00025 13.0003 -0.528067 -1.83935 
2922829 -0.00407578 -0.00164483 -0.00553213 0.00045 13.5446 -0.632454 -1.65197 
2917166 -0.00358434 -0.00223396 -0.0057812 0.00035 12.5583 -0.617256 -2.2817 
2935400 -0.000410364 0.0260722 0.016277 0.00025 -0.454346 10.3371 6.26157 
2929399 -0.000272333 0.0628586 0.0997069 0.00025 -0.50026 5.16477 7.36599 
2956188 -0.0377399 -0.000188941 -0.00534917 0.00025 16.668 -0.146586 -1.54685 
2943347 -0.0331641 -0.000271092 -0.00553566 0.00035 16.5899 -0.0206662 -1.22744 
2949428 -0.0312145 -0.000374349 -0.00522449 0.00025 16.6768 -0.240632 -1.59998 
2937358 -0.0281346 -0.000686892 -0.00536501 0.00045 16.4831 0.233451 -0.940482 
2956100 -0.0253712 -0.000914315 -0.00520795 0.00025 16.402 -0.0148495 -1.39515 
2950280 -0.0204023 -0.000783923 -0.0063931 0.00025 16.9056 0.178968 -2.04976 
2925694 -0.0191358 -0.000844648 -0.00618578 0.00055 16.4827 0.0219222 -1.95592 
2944465 -0.0132987 -0.000773482 -0.00660102 0.00025 17.1592 -0.127177 -3.33028 
2935027 -0.00222615 -0.00112372 -0.00777523 0.00025 11.1759 -0.64222 -6.17141 
2946312 -0.000592997 -0.0154757 0.0908443 0.00035 -0.684508 -1.98682 10.293 
2940413 -0.0331718 0.000896934 -0.00553096 0.00035 16.537 -0.114242 -1.52673 
2946965 -0.0317286 0.0011043 -0.00659467 0.00025 16.8333 0.0998376 -1.97583 
2944009 -0.0276925 -8.59621e-05 -0.00598854 0.00025 16.731 -0.112699 -1.23136 
2952933 -0.0280256 0.000476835 -0.0051631 0.00025 16.4231 0.0913006 -1.08314 
2935046 -0.0276021 0.000308493 -0.00631005 0.00025 16.6194 -0.309356 -1.65103 
2947062 -0.0271806 -2.51824e-06 -0.00636812 0.00025 16.6965 -0.0923194 -1.67608 
2922840 -0.0272789 0.000620968 -0.00577602 0.00045 16.5344 -0.0943571 -1.74784 
2958886 -0.0258155 0.00104441 -0.00533071 0.00025 16.6842 0.179839 -1.85667 
2928779 -0.00822938 0.000717183 -0.0063309 0.00035 15.7982 0.343894 -2.74051 
2938691 -0.00679713 0.00113279 -0.00641683 0.00025 15.4764 0.559852 -3.31242 
2919899 -0.00523136 0.000483189 -0.00637705 0.00045 14.7093 0.0447914 -3.35223 
2955706 -0.000360339 0.0210688 0.0115693 0.00025 -0.203691 10.3942 5.50546 
2950836 -0.000669103 -0.0229539 0.0889204 0.00025 -0.867142 -2.82566 9.98469 
2930728 -0.000125548 -0.0613346 0.0986068 0.00025 -0.197496 -5.7412 8.33339 
2938268 -0.000391226 0.0616102 0.0967142 0.00025 -0.470393 5.18619 8.70812 
2957220 -0.000869867 -0.020068 0.0859691 0.00025 -1.13814 -2.95913 10.2974 
2942147 -0.000724015 0.0569595 0.0923957 0.00025 -1.14122 5.59504 8.40285 
2937654 -0.000468 0.0798738 0.0862431 0.00025 -0.721751 5.78333 5.95915 
2933873 -0.000441239 0.0612142 0.0940939 0.00025 -0.574344 4.56724 8.38389 
2954016 -0.000830685 0.0573514 0.0934122 0.00025 -1.0661 5.49967 8.37308 
2963284 -0.000434976 0.0486151 0.0417252 0.00025 -0.305413 7.85669 7.02314 
2961185 -0.000402824 -0.0098002 0.0451835 0.00025 -0.355376 -2.47371 10.6783 
2950131 -0.000147186 0.0236212 0.0064927 0.00025 0.146996 11.4623 2.41958 
2944251 -0.00084215 -0.0204265 0.0869994 0.00025 -1.05674 -2.83357 10.5087 
2937050 -0.000793159 -0.0188648 0.0831316 0.00025 -1.14973 -2.78799 10.4206 
2936823 -0.000231384 -0.0141085 0.095309 0.00025 -0.248352 -2.15744 9.78315 
2927723 -9.16653e-05 0.0194351 0.0412758 0.00025 0.66116 5.13936 9.56506 
2943767 -0.000838034 0.0590578 0.0942663 0.00025 -1.0646 5.42509 8.69391 
2954080 -0.000294659 -0.0107865 0.0481584 0.00025 0.118877 -2.31054 10.4632 
2952057 -0.0272514 0.00410403 -0.0059716 0.00035 16.487 -0.111616 -2.03869 
2946367 -0.0207695 0.00385141 -0.00567776 0.00025 16.582 -0.101738 -1.86075 
2955685 -0.00816894 0.00336688 -0.00661828 0.00025 15.6373 0.401169 -2.71512 
2938775 -0.000605033 -0.0226387 0.0879324 0.00025 -0.821032 -3.01736 10.0728 
2943794 -0.000657631 0.056531 0.0921429 0.00025 -0.805688 5.74054 8.1424 
2920924 -0.00104343 0.0574937 0.0910148 0.00025 -1.37007 5.73273 7.8646 
2937324 -0.000945969 0.0558055 0.0902115 0.00025 -1.33441 5.34577 8.39372 
2934241 -0.000437164 0.0242376 0.0400351 0.00025 -0.318279 6.04756 9.21262 
2949518 -0.000592093 -0.0104447 0.0907329 0.00025 -0.152775 -2.3302 9.63426 
2954364 -0.000629439 -0.019354 0.0828479 0.00025 -1.0548 -2.85583 10.5899 
2947178 -0.000542366 -0.0123396 0.0910592 0.00025 -0.11393 -2.47178 10.0568 
2921549 -0.000664102 0.0257976 0.0212915 0.00035 -0.427135 9.01269 6.98606 
2952785 -0.000257094 -0.0217167 0.0327631 0.00025 0.0542409 -6.30436 9.77612 
2941671 -0.000479489 -0.0212031 0.0824661 0.00025 -0.985036 -2.83306 10.5525 
2956540 -0.000334007 0.0515689 0.0804122 0.00025 -0.160717 6.49482 8.23782 
2968369 -0.000899041 0.0177402 0.0229301 0.00025 -0.628024 7.17389 8.62494 
2943057 -0.000129347 0.0462719 -0.00653607 0.00025 0.545774 11.5216 -2.25457 
2940897 -0.000798374 -0.023556 0.0885171 0.00025 -0.985136 -2.40764 10.3773 
2966672 -0.000672302 -0.0442336 -0.00514259 0.00035 -0.0234093 -12.1156 -1.8211 
2919963 -0.000511151 -0.0294074 -0.00528255 0.00035 -0.114234 -11.5528 -2.3371 
2943473 -0.00042977 -0.0828665 0.0429098 0.00025 -0.360821 -10.0607 4.24514 
2945472 -0.000134173 -0.0217727 0.093201 0.00025 0.0755228 -3.13679 9.49288 
2927426 -0.000184881 0.0606138 0.0963581 0.00035 -0.478269 5.4162 7.92421 
2946249 -0.000356832 -0.0123101 0.0848375 0.00035 -0.841823 -1.59166 10.5198 
2935890 -0.000686101 0.0283844 0.00465795 0.00045 -0.841468 12.0145 1.63013 
2954303 -0.000699137 -0.0200767 0.0878326 0.00025 -0.825013 -2.68537 10.2359 
2960422 -0.000453201 -0.0418069 0.0813373 0.00025 -0.899834 -5.91779 8.97597 
2935839 -0.0165011 -0.00707347 -0.00477143 0.00025 16.7166 0.0441679 -1.67557 
2944109 -0.000619389 -0.00968484 -0.00587793 0.00025 8.21693 -6.19787 -4.64305 
2945656 -0.000737841 -0.0443922 0.0795367 0.00025 -0.588078 -6.11305 8.40319 
2954720 -0.000148528 -0.0623855 0.0741079 0.00025 -0.211655 -6.26805 8.1892 
2935772 -0.000581965 -0.0435164 0.0788323 0.00025 -0.636063 -6.09012 8.53549 
2948926 -0.000360844 0.0901368 0.0769204 0.00025 -0.489857 7.17753 6.57194 
2928691 2.46803e-05 -0.00830037 -0.00594594 0.00035 7.4042 -5.22404 -4.62861 
2931594 -0.000389525 0.0550075 0.0747645 0.00035 -0.431037 5.47294 8.03466 
2951315 -0.000647653 -0.0464205 0.0784597 0.00025 -0.343105 -5.20244 8.7006 
2927763 -0.00060599 0.0161183 0.030248 0.00025 -0.519469 5.76093 9.83598 