ITEM: TIMESTEP
955840
ITEM: NUMBER OF ATOMS
32268
ITEM: BOX BOUNDS ff ff ff
-0.705 0.705
-0.1016 0.1016
-0.11 0.11
ITEM: ATOMS id x y z radius vx vy vz 
2946112 -0.122907 -0.0106033 0.00706381 0.00045 9.87495 0.737171 -0.541189 
2946175 -0.120932 -0.0105699 0.0069384 0.00035 10.2241 0.830366 -0.538893 
2949221 -0.117688 -0.0103624 0.00684492 0.00035 10.48 0.809902 -0.691033 
2952373 -0.123851 -0.0114088 0.0093558 0.00025 9.89735 0.759873 -0.82141 
2956118 -0.137838 -0.0124104 0.0098643 0.00025 8.37541 0.726492 -0.874853 
2949779 -0.140156 -0.00938396 0.010508 0.00025 8.12151 0.423346 -0.575434 
2951877 -0.112075 0.00155826 0.020105 0.00055 10.9711 -0.153515 -1.83828 
2946572 -0.000352098 0.0714146 -0.109238 0.00025 -0.317221 4.8034 -9.48088 
2944296 -0.000124735 0.0776799 -0.107515 0.00025 -0.0941559 5.30638 -8.85595 
2943516 -0.00292507 0.0964511 -0.108381 0.00025 -0.576753 7.51224 -8.84998 
2941485 -0.00328684 0.0728566 -0.107609 0.00025 -0.658579 5.97356 -10.2275 
2944345 -0.00033019 0.0809024 -0.107125 0.00025 -0.191545 5.82333 -8.96989 
2937665 -0.0027897 0.0828746 -0.106773 0.00025 -0.596669 6.06802 -8.8843 
2938267 -0.00139608 0.0844876 -0.107023 0.00025 -0.310118 6.92278 -9.51192 
2923533 -0.000271563 0.0839391 -0.106991 0.00025 -0.129367 6.60348 -9.28336 
2935853 -0.00352973 -0.00060847 -0.107485 0.00025 -1.19379 0.710837 -11.3275 
2919402 -0.00333783 0.068897 -0.107385 0.00025 -0.718056 5.61801 -10.1931 
2932257 -0.00710409 0.0784249 -0.106368 0.00025 -1.28472 6.66624 -9.97819 
2937719 -0.00699863 0.0822243 -0.107023 0.00025 -1.12496 7.04315 -9.91175 
2932534 -0.000700629 0.0838733 -0.106704 0.00025 -0.327499 6.64618 -9.43041 
2938215 -0.00146982 0.0841117 -0.105929 0.00025 -0.552924 6.44555 -9.08621 
2939976 -0.00306772 -0.0206509 -0.106803 0.00025 -1.02971 -2.55088 -11.4415 
2940146 -0.00259685 -0.0171079 -0.105987 0.00025 -0.975342 -1.99543 -11.0924 
2932210 -0.00238956 0.0824595 -0.104987 0.00025 -0.519376 6.99658 -9.65429 
2927375 -0.000628166 0.0819609 -0.104976 0.00035 -0.22699 6.86398 -9.68704 
2949919 -0.00186271 0.0832236 -0.104392 0.00025 -0.427685 6.16839 -8.70588 
2944421 -0.00165992 0.0842424 -0.1047 0.00025 -0.5537 6.70422 -9.24028 
2933233 -0.00113377 0.0842819 -0.105445 0.00035 -0.344841 6.7688 -9.21674 
2920844 -0.000594951 0.0845909 -0.105426 0.00025 -0.239842 6.64054 -9.18428 
2944025 -0.000683278 0.0853456 -0.105328 0.00025 -0.250167 6.85434 -8.98017 
2941532 -0.00453003 0.0884556 -0.105531 0.00025 -0.747397 7.65085 -9.62521 
2951281 -0.00788117 0.0780582 -0.103626 0.00025 -1.27793 6.50207 -9.53988 
2950991 -0.00179299 0.0877081 -0.104194 0.00025 -0.37343 7.53225 -9.43091 
2935023 -0.00281298 0.0875261 -0.103638 0.00025 -0.607429 6.64345 -8.62932 
2944005 -0.00122708 0.0885173 -0.104044 0.00025 -0.259548 7.5312 -9.36631 
2957270 -0.00145337 0.000600092 -0.103858 0.00025 -0.728822 0.814743 -11.0753 
2924373 -0.00247184 0.0854646 -0.102642 0.00035 -0.580152 7.42676 -9.33912 
2931388 -0.00568571 0.0884903 -0.101776 0.00025 -0.971235 6.73679 -8.45753 
2943476 -0.00228715 0.0904357 -0.103053 0.00025 -0.418825 7.72206 -9.2408 
2941394 -0.00121129 0.0903563 -0.10284 0.00025 -0.264518 7.59645 -9.14648 
2934836 -0.000633258 -0.0974106 -0.100944 0.00025 -0.728962 -6.80556 -8.35254 
2945173 -0.001477 -0.0218491 -0.102813 0.00025 -0.733319 -2.84132 -10.9042 
2952491 -0.00184215 -0.0165867 -0.103364 0.00025 -0.946351 -1.8093 -11.3791 
2945237 -0.00539096 0.0633601 -0.102545 0.00025 -1.33702 4.93587 -9.72289 
2943073 -0.00970845 0.0864875 -0.101241 0.00025 -1.54971 7.53317 -9.27693 
2931977 -0.0104247 0.0895992 -0.101354 0.00025 -1.64341 7.90927 -9.24587 
2934767 -0.00722423 0.0922299 -0.101071 0.00025 -1.15155 8.1337 -9.17149 
2926194 -0.000570395 0.0916083 -0.101869 0.00025 -0.169637 7.72376 -8.9556 
2938188 -0.000865146 0.091807 -0.101312 0.00025 -0.330733 7.70085 -8.95364 
2938108 -0.00608645 0.0759628 -0.100923 0.00025 -1.07346 6.30447 -9.29473 
2950864 -0.00328817 -0.0142837 -0.100181 0.00025 -1.09312 -1.5015 -10.469 
2942646 -0.00637055 0.073755 -0.0993379 0.00025 -1.13262 6.17996 -9.25521 
2944552 -0.00569924 0.081532 -0.0994494 0.00025 -1.08797 7.10989 -9.18922 
2931880 -0.000997005 0.0890737 -0.0995331 0.00025 -0.433732 7.12906 -8.67095 
2933956 -0.000680691 0.0953551 -0.0988581 0.00025 -0.194009 8.25727 -8.75827 
2947800 -0.00179929 -0.013395 -0.0994772 0.00025 -0.738219 -1.38835 -10.38 
2951657 -0.00152932 -0.0107716 -0.09914 0.00025 -0.713558 -0.854467 -10.4089 
2939020 -0.00630088 0.0794856 -0.0985491 0.00035 -1.23746 6.88041 -9.09663 
2941367 -0.00132524 0.0805167 -0.0987006 0.00025 -0.476418 6.82748 -9.04599 
2934539 -0.000979974 0.0862765 -0.0978764 0.00035 -0.388417 7.54527 -8.95724 
2951340 -0.00729593 0.0872202 -0.0980909 0.00025 -1.2777 7.67058 -8.95919 
2944095 -0.000801922 0.0874965 -0.097348 0.00025 -0.389919 7.26949 -8.45592 
2940549 -0.00648013 0.0891949 -0.0984322 0.00025 -1.08234 7.83087 -8.97279 
2925491 -0.00162087 -0.0237864 -0.0985954 0.00025 -0.57698 -2.90422 -10.8343 
2946604 -0.00578522 0.0767988 -0.0973431 0.00025 -1.15446 6.43469 -8.997 
2927350 -0.0012488 0.0803344 -0.0975198 0.00035 -0.568902 7.14279 -9.14416 
2942802 -0.00798562 0.0877321 -0.0966248 0.00025 -1.3527 7.69769 -8.8351 
2953709 -0.00135306 -0.0157726 -0.0970716 0.00025 -0.651979 -1.71996 -9.98037 
2932363 -0.000461567 -0.0130483 -0.0966948 0.00025 -0.380543 -1.21958 -10.1616 
2918506 -0.00514959 0.0859214 -0.0956111 0.00035 -1.10464 7.73591 -8.8869 
2943468 -0.013611 0.0879298 -0.0957895 0.00025 -2.16471 7.8272 -8.82962 
2929286 -0.00549539 0.0973122 -0.0959353 0.00025 -0.915648 8.64271 -8.58081 
2912656 -0.00275454 -0.0974247 -0.0938757 0.00045 -0.132262 -8.65014 -8.48495 
2921604 -0.00442929 0.0864658 -0.0929605 0.00035 -0.959763 7.83301 -8.70802 
2946961 -0.00405544 0.0988958 -0.0933377 0.00025 -0.735044 8.83997 -8.28637 
2938969 -0.00195682 0.00858368 -0.09536 0.00035 -0.0378089 1.30655 -12.3743 
2925845 -0.00180754 0.0836808 -0.091753 0.00035 -0.643646 7.48572 -8.46071 
2933036 -0.00532506 0.00931805 -0.0947555 0.00045 -0.636528 1.30185 -12.2702 
2924266 -0.00390601 0.0103692 -0.0938219 0.00045 -0.31165 1.42293 -12.259 
2942092 -0.00298653 0.0728652 -0.0907392 0.00025 -0.689229 6.08246 -8.21716 
2923070 -0.00649219 0.0886997 -0.091341 0.00035 -1.33714 8.06434 -8.49411 
2945850 -0.0129328 0.09047 -0.0913816 0.00025 -2.02807 8.05059 -8.22533 
2943139 -0.00830262 0.0980125 -0.0904614 0.00025 -1.41967 8.92518 -8.06652 
2950505 -0.00110325 0.00894028 -0.092829 0.00035 0.191741 1.36765 -12.2281 
2930126 -0.00225298 0.0135522 -0.0926026 0.00045 -0.0698207 1.84363 -12.1947 
2925964 -0.00793982 0.0919993 -0.0900002 0.00035 -1.47333 8.03178 -7.94263 
2921362 -0.00609588 -0.00144394 -0.0920217 0.00045 -0.921116 -0.053364 -12.0833 
2921381 -0.00206066 0.00715157 -0.0918715 0.00045 -0.0208343 1.02016 -12.2387 
2930117 -0.00515277 0.0234483 -0.0913207 0.00045 -0.716608 2.99143 -11.9107 
2941734 -0.00117391 0.00645341 -0.0907525 0.00045 0.176252 1.09139 -12.2604 
2930290 -0.00177503 0.0851258 -0.0877767 0.00035 -0.632773 7.71974 -8.09007 
2927506 -0.00868376 0.094336 -0.0867393 0.00025 -1.45496 8.53145 -7.61732 
2924287 -0.000828192 -0.0116144 -0.0897253 0.00045 -0.0138644 -1.56918 -12.3058 
2935883 -0.00591751 0.000258861 -0.0899832 0.00055 -0.726367 0.180296 -12.0027 
2938999 6.22624e-06 0.0159381 -0.0898437 0.00035 1.23176 2.18861 -11.7266 
2925855 -0.00142358 0.100502 -0.0863565 0.00035 -0.445268 9.21889 -7.5499 
2959045 -0.000855418 -0.0183275 -0.0879395 0.00025 -0.0468314 -2.56457 -11.6455 
2944674 -0.00170995 0.0222356 -0.0882296 0.00035 0.0510953 2.84982 -11.5921 
2941995 -0.00175402 0.0721488 -0.0856668 0.00025 -0.559551 6.25313 -8.18106 
2948012 -0.00692668 0.0850312 -0.0854468 0.00025 -1.33088 7.74872 -7.84897 
2949924 -0.0126085 0.0916952 -0.0849772 0.00025 -2.06864 8.24325 -7.5292 
2943163 -0.110877 -0.00148145 0.0198105 0.00045 10.711 -0.322661 -2.01161 
2941814 -0.00160069 0.0280906 -0.0869235 0.00035 0.0214721 3.67361 -11.6033 
2915525 -0.00658422 0.000322968 -0.0851442 0.00055 -0.83498 0.185847 -11.5214 
2936996 -0.00224382 0.0831237 -0.0811574 0.00025 -0.693156 7.64391 -7.47321 
2921358 -0.00146649 0.0307481 -0.083392 0.00045 0.118638 4.0722 -11.1835 
2927394 -0.000439562 0.0849628 -0.0809586 0.00035 -0.444718 8.12358 -7.64627 
2931519 -0.000256741 0.0315856 -0.0811467 0.00055 0.271484 4.42659 -11.0972 
2948422 -0.00172704 0.0865437 -0.0780272 0.00025 -0.525435 8.1513 -6.97988 
2932136 -0.00368869 0.0893614 -0.0760781 0.00025 -0.93761 8.43794 -6.72998 
2948023 -0.00125571 0.0620528 -0.0771409 0.00025 -0.851044 6.23113 -8.74773 
2919897 -0.00247237 0.069249 -0.0784185 0.00045 -0.306453 8.53798 -9.96075 
2949653 -0.000363565 0.0707814 -0.0748099 0.00025 -0.300817 7.34223 -8.04404 
2944884 -0.000973075 0.0674783 -0.0739548 0.00025 -0.704694 7.22547 -8.34368 
2944271 -0.00124436 0.0692618 -0.0745748 0.00025 -0.525561 7.18036 -7.95999 
2941968 -0.00102586 0.07046 -0.0749141 0.00035 -0.0365046 8.71783 -9.49516 
2951528 -0.000798447 -0.0104622 -0.0751224 0.00025 -0.948349 -1.27534 -10.161 
2939013 -0.000548153 0.0714405 -0.074317 0.00035 0.0544091 8.97227 -9.60273 
2935978 -9.25119e-05 0.066357 -0.0731813 0.00035 -0.0493083 8.0041 -8.95263 
2942609 -0.000778268 0.0702819 -0.0723994 0.00025 -0.647547 7.81189 -8.17167 
2959209 -0.00193635 0.0600114 -0.0714687 0.00045 -0.174828 7.73585 -9.47201 
2921345 -0.00856428 0.0643224 -0.0717236 0.00055 -1.32761 8.23265 -9.42143 
2953366 -0.0044687 0.0625296 -0.0707502 0.00045 -0.559937 8.14698 -9.37548 
2948075 -0.000172619 0.0619518 -0.0705358 0.00025 0.278737 7.94918 -9.24045 
2950688 -0.00164641 0.063013 -0.0698029 0.00035 -0.11686 7.89834 -9.05471 
2933033 -0.00601302 0.0662812 -0.0692799 0.00045 -0.94505 8.50496 -9.08477 
2921377 -0.000329303 0.0751548 -0.0686606 0.00045 0.0263106 9.16168 -8.41495 
2934422 -0.00301474 0.0644268 -0.0686961 0.00055 -0.336242 8.46553 -9.28996 
2937376 -0.00285622 0.0735809 -0.068442 0.00045 -0.384568 9.5125 -8.90201 
2943690 -0.0021251 -0.0908158 -0.065162 0.00025 -1.73731 -9.19824 -6.31045 
2930897 -0.00212695 0.095914 -0.0643267 0.00025 -1.72174 7.71537 -6.60038 
2921376 -0.00215697 0.0682473 -0.0637825 0.00045 -0.221368 8.96438 -8.48362 
2939567 -0.00130314 0.0935264 -0.0618618 0.00025 -1.35333 7.01396 -5.99784 
2947247 -0.0019142 0.0599609 -0.0609103 0.00025 -0.768865 8.03575 -8.03208 
2922787 -0.00148006 0.0657191 -0.0609141 0.00055 -0.18194 9.02144 -8.41469 
2939492 -0.000279464 0.0663009 -0.0595649 0.00025 -0.293562 9.42168 -7.96859 
2922014 -0.00195167 0.0527515 -0.057985 0.00025 -1.37945 7.06283 -8.58141 
2932965 -0.000222069 0.0818283 -0.0527728 0.00055 0.71525 10.1572 -6.57271 
2915520 -0.00209672 0.0878832 -0.0528131 0.00055 -0.0719643 10.5529 -6.41718 
2927818 -0.00137318 0.0527023 -0.0520539 0.00025 -1.12032 7.17456 -7.17925 
2965063 1.92391e-05 0.0287492 -0.051717 0.00035 0.825827 5.99168 -11.1468 
2924407 -0.000124901 0.0277559 -0.050262 0.00035 0.834085 5.81576 -11.1449 
2932981 -0.0011259 0.00321295 -0.049433 0.00055 -0.184672 1.00272 -12.5206 
2946864 -0.00205695 0.0471995 -0.0441419 0.00025 -2.20875 8.35061 -7.4986 
2945153 -0.000235518 -0.101186 -0.0351605 0.00025 0.247759 -10.9112 -4.06697 
2935878 -0.000384559 0.0336967 -0.0384989 0.00055 -0.149877 7.93211 -9.38252 
2925648 -0.000176932 0.0745623 -0.03457 0.00025 0.562987 10.9132 -4.61519 
2947529 -1.10257e-05 0.0372838 -0.0376562 0.00045 0.22795 8.53411 -9.10946 
2945578 -0.000490102 0.0710786 -0.0330575 0.00025 -0.249586 10.1664 -4.49318 
2956231 -0.000177958 0.0342246 -0.0320142 0.00055 0.0387624 8.91181 -8.57365 
2952006 -4.77527e-05 0.0449182 -0.0286794 0.00035 0.216336 10.1782 -6.61881 
2957174 -0.000190282 0.0738594 -0.025603 0.00025 0.19769 11.0507 -3.47019 
2918447 -0.00103319 -0.0475396 -0.0264424 0.00045 0.118467 -10.4326 -6.11498 
2950580 -0.000280609 0.0468587 -0.0261089 0.00035 0.457775 10.6261 -6.12232 
2950607 1.23148e-05 0.0490896 -0.0255901 0.00035 0.914633 10.4247 -5.83962 
2918437 -0.000503843 0.0212646 -0.0270176 0.00055 -0.389676 7.6171 -10.1534 
2938479 -0.00190654 -0.0740504 -0.0176724 0.00025 -2.06535 -10.9276 -3.1853 
2961030 -2.31193e-05 0.0387336 -0.0207487 0.00025 0.306265 10.6461 -5.99941 
2938798 -0.00178892 -0.0854205 -0.0164728 0.00045 -0.135382 -11.5183 -2.31016 
2933906 -0.00128434 -0.068074 -0.0169465 0.00025 -1.41161 -9.45057 -3.21836 
2924261 -0.000127578 -0.0409531 -0.0185035 0.00045 0.177174 -11.0239 -5.52968 
2937661 -0.000198988 0.0191126 -0.0224069 0.00025 0.0368022 7.4299 -9.89494 
2956189 -0.00148694 -0.0679834 -0.0164252 0.00025 -1.3723 -9.18062 -3.16911 
2933230 -0.00024891 0.020765 -0.021107 0.00035 -0.045137 8.90247 -9.7457 
2951903 -0.00127287 0.050702 -0.0169264 0.00045 0.269769 10.856 -3.87561 
2954821 -0.000512537 0.0506995 -0.0153511 0.00045 0.59359 11.302 -3.41398 
2924258 -9.8282e-05 0.056197 -0.014471 0.00045 0.395301 11.2931 -2.76679 
2943199 -0.000806657 0.0571954 -0.0148531 0.00045 0.48459 11.4235 -3.08717 
2923897 -0.00156584 -0.0721159 -0.0130951 0.00025 -1.57982 -10.2316 -2.30462 
2940300 -0.000105556 -0.0528502 -0.014045 0.00045 0.667493 -11.7483 -3.46931 
2944648 -0.000380442 0.0256745 -0.0178529 0.00045 -0.135475 10.6728 -7.44888 
2967464 -0.00174285 -0.0760384 -0.0123859 0.00025 -1.72218 -11.4028 -2.26204 
2968388 -0.000141252 -0.0276886 -0.0151518 0.00025 0.0932089 -10.2773 -6.22902 
2952067 -0.11247 0.010534 0.0095533 0.00035 10.9896 -0.855369 -1.06626 
2943160 -0.111312 0.0100735 0.00917619 0.00045 11.133 -0.739987 -1.07706 
2942762 -0.000882819 0.0585757 0.0948612 0.00025 -1.07809 5.7539 8.53491 
2950528 -0.000121348 0.0515803 -0.0123878 0.00035 1.157 11.2401 -2.80157 
2944653 -0.0008621 0.05305 -0.012866 0.00045 0.503177 11.3172 -2.88072 
2935924 -0.000145917 -0.0495174 -0.0107812 0.00045 0.261832 -11.5927 -2.78574 
2934463 -0.109341 0.0101132 0.0107961 0.00045 11.5123 -0.859825 -1.06036 
2947243 -0.00125324 -0.00228036 -0.0121723 0.00025 9.29961 -1.11097 -8.00272 
2929756 -0.00113217 -0.000875735 -0.0122366 0.00025 9.22897 -0.902444 -8.08873 
2958099 -0.000549777 0.000388189 -0.0124506 0.00025 8.39017 0.856351 -8.39104 
2934689 -0.000562327 0.0012352 -0.0122194 0.00035 8.71401 0.956443 -8.37024 
2961746 0.000200549 0.00115299 -0.0129973 0.00025 7.19139 0.847876 -9.26532 
2935035 -0.00018305 0.0647227 0.100354 0.00025 -0.326396 5.84438 7.56136 
2940369 -0.000235236 -0.0222908 0.0957935 0.00035 -0.250087 -2.83646 9.71009 
2923283 -0.000859599 -0.0224965 0.091933 0.00025 -0.456425 -3.07173 9.61034 
2931543 0.000204916 0.00226607 -0.011849 0.00045 9.00047 0.872868 -8.08374 
2931106 -0.000332621 0.0390169 0.0922651 0.00025 -0.542562 3.86682 9.33779 
2949914 -0.00010041 0.000303557 0.092036 0.00025 0.361725 -1.0347 9.81242 
2940455 -0.109561 -0.0101198 0.0077146 0.00035 11.4622 0.863616 -0.875924 
2937328 -0.109609 0.0101234 0.00976915 0.00055 11.2647 -0.844093 -1.01942 
2953617 -0.000630675 -0.0238366 0.0885168 0.00025 -0.989111 -2.64342 10.3522 
2931161 -0.000111771 0.0881383 0.0813864 0.00025 -0.196842 7.35378 5.69467 
2940728 -0.000135406 0.0479281 0.07935 0.00025 -0.0293136 6.33111 7.89702 
2951793 -0.000877769 -0.0455495 0.0831999 0.00025 -0.944464 -6.83065 8.46912 
2920248 -0.000423969 0.0217267 -0.0138631 0.00025 -0.132001 9.43933 -6.4952 
2959862 -5.82157e-05 0.0514611 -0.0106542 0.00025 0.654448 10.7891 -2.58218 
2942644 -0.000317797 -0.0373135 0.0744031 0.00025 -0.863841 -5.86786 8.89396 
2937335 -0.108918 -7.58013e-05 -0.000113921 0.00055 11.8249 0.199959 -0.447063 
2946135 -0.109086 -0.000916771 -0.000665307 0.00035 11.7228 0.00224345 -0.0708932 
2947467 -0.111493 -0.0100076 0.00668896 0.00025 11.7056 0.796036 -0.5149 
2934418 -0.113654 -0.0104175 0.00943038 0.00055 10.5385 0.810743 -0.783702 
2954567 -9.43707e-05 -0.0197522 0.0741367 0.00025 0.607947 -3.11979 9.45133 
2956718 -0.000329336 -0.0159931 0.0713325 0.00025 -0.0732677 -3.58128 9.18486 
2949693 -0.00756724 -0.00217177 -0.00874659 0.00025 15.5994 -0.0151644 -2.5603 
2954390 -0.000274938 -0.011631 0.066682 0.00025 -0.299715 -2.52775 9.84797 
2935127 -0.00680891 0.000142755 -0.00891704 0.00025 15.1741 0.0717603 -2.47553 
2919896 -0.00138838 0.00113024 -0.010905 0.00045 10.0668 0.803168 -6.92441 
2940553 -0.000829949 0.000591599 -0.0119898 0.00025 8.43058 0.882616 -8.04281 
2952332 -0.000509821 0.000728257 -0.0114764 0.00025 8.90603 0.434383 -8.25335 
2947399 -0.000191246 0.00107909 -0.0117479 0.00025 8.62709 0.796187 -8.22948 
2940267 -0.000156257 0.00114117 -0.0106315 0.00045 9.32867 0.716648 -7.36011 
2952095 0.000128926 0.000396627 -0.0118943 0.00035 7.77644 0.462369 -8.52121 
2925540 -0.000813843 0.0579279 0.0940114 0.00025 -1.08998 5.40772 8.63548 
2920000 -0.00166795 0.00193109 -0.0107041 0.00035 9.14746 1.05526 -6.92035 
2946164 -0.000639987 0.00182652 -0.0108182 0.00035 9.72323 0.767127 -7.80533 
2939780 -0.000335113 0.0771643 0.062088 0.00025 -0.0985302 6.90888 5.47021 
2969983 -0.000375591 -0.00770491 0.044725 0.00025 -0.339605 -2.09287 10.846 
2924115 4.92657e-06 0.0462006 -0.00957854 0.00025 0.700237 11.0145 -2.5979 
2924410 -0.000619326 0.0490591 -0.01027 0.00035 0.821562 11.2427 -2.95332 
2957607 -0.000115814 0.0486876 -0.0104028 0.00025 1.16535 10.7564 -2.78834 
2920045 -0.000393457 -0.0520139 -0.00792228 0.00035 0.675607 -11.8885 -2.2781 
2949864 -0.000167869 -0.090929 0.0380999 0.00025 0.0258306 -9.18729 4.16813 
2950474 -0.00131428 -0.0470274 -0.00888682 0.00045 -0.26604 -11.8989 -2.43144 
2960468 -0.000266473 -0.0443569 -0.00822198 0.00025 0.638146 -11.5593 -2.39223 
2922799 -0.000448346 -0.041983 -0.00934843 0.00055 -0.152658 -11.8992 -2.83923 
2940234 -0.110176 0.00991576 0.00885541 0.00055 11.2457 -1.05036 -0.917826 
2952239 -0.00794965 -0.00279298 -0.00887319 0.00025 16.1586 -0.102949 -2.34836 
2950216 -0.00264626 -0.00376184 -0.00891874 0.00025 11.3231 -2.31226 -5.78017 
2920819 -0.000275523 -0.0164297 0.0384009 0.00025 -0.0980641 -4.68517 10.2226 
2952920 -0.0078518 -0.00196978 -0.00834034 0.00025 15.6052 -0.384953 -3.36136 
2949262 -0.000213699 -0.0237144 0.0943725 0.00025 0.372101 -2.96259 8.81421 
2947088 -0.000591313 -0.000490463 -0.0104429 0.00025 8.6323 -0.788471 -7.6213 
2935404 -0.00102804 0.000955187 -0.0103398 0.00025 10.0115 0.733954 -6.86202 
2928813 -0.00715747 0.00122716 -0.00840325 0.00035 15.4184 0.291154 -2.70924 
2955046 -0.000867563 0.00249493 -0.00967521 0.00035 9.75409 0.809591 -6.59088 
2951944 -0.000106274 0.00225597 -0.0107504 0.00035 9.14254 1.03146 -8.07364 
2940891 -0.000409825 -0.017751 0.0932572 0.00025 -0.251037 -2.55624 10.1105 
2938553 -0.000182312 0.0188566 0.0893249 0.00025 -0.23262 2.75416 10.3052 
2950554 -0.000263219 0.0479791 -0.00941228 0.00035 0.488246 11.3492 -2.71233 
2936049 -0.000746928 0.0483539 -0.00907617 0.00035 0.68975 11.4564 -2.55613 
2947746 1.14691e-05 0.0518166 -0.00916442 0.00035 0.618617 11.3403 -2.43788 
2952334 -0.110089 -0.00801123 0.00535426 0.00025 11.6406 0.788551 -0.61102 
2938950 -0.000625524 -0.0201505 0.0836701 0.00035 -1.02038 -3.10169 10.4471 
2939723 -0.00061233 -0.0444418 0.075881 0.00025 -0.694887 -5.6145 9.03908 
2927403 -0.00011742 -0.0506227 -0.00760501 0.00035 0.982485 -11.7698 -2.30391 
2962494 -3.85043e-06 -0.0473406 -0.00764861 0.00025 1.34499 -12.0007 -2.29877 
2940021 -0.000731259 -0.0423237 0.0737764 0.00025 -0.932797 -5.64684 8.84654 
2955092 -6.56969e-06 -0.0442709 -0.0065744 0.00025 0.409501 -11.6215 -1.77652 
2971248 1.35059e-05 -0.0433491 -0.00775706 0.00025 0.739962 -11.129 -2.23507 
2970094 -0.000136255 -0.0396512 -0.00687425 0.00025 -0.0563142 -10.9922 -2.26717 
2972187 -0.000116836 -0.0404847 -0.00809807 0.00025 0.108167 -11.2596 -2.63942 
2933640 -0.000190189 -0.0392507 -0.00756573 0.00025 0.486969 -11.0852 -2.47423 
2935668 -0.000214138 -0.0260806 -0.00865606 0.00025 0.3253 -10.5292 -4.24005 
2964250 -0.000174739 0.0331322 0.0298303 0.00025 -0.0087201 8.58073 7.38956 
2933659 -0.000433319 0.0356509 0.0250566 0.00025 0.0561386 9.60965 6.68427 
2931238 -0.000642463 -0.0418907 0.0722399 0.00025 -0.675387 -5.40618 8.91165 
2941110 -0.0209823 -0.00242461 -0.00745851 0.00025 16.3487 0.308305 -1.66794 
2931511 -0.0206724 -0.00252089 -0.00672874 0.00055 16.3505 0.106824 -1.70437 
2956033 -0.0180555 -0.0030529 -0.00618454 0.00025 16.6148 -0.0553961 -1.30093 
2952297 -0.020612 -0.0015111 -0.00696322 0.00025 16.6098 0.0812763 -1.81236 
2952338 -0.0196172 -0.00201319 -0.00740661 0.00025 16.7144 -0.005592 -2.18232 
2952984 -0.0193234 -0.00157302 -0.00685428 0.00025 16.8015 -0.000449864 -1.96075 
2941498 -0.0190615 -0.0011683 -0.00702681 0.00025 16.8629 0.0955375 -1.73824 
2920633 -0.015085 -0.00190204 -0.00764524 0.00025 16.6648 -0.0508177 -2.5869 
2934541 -0.0144437 -0.0017024 -0.00778892 0.00035 16.6306 -0.155648 -3.10553 
2928882 -0.00328752 -0.00258162 -0.00791679 0.00035 13.2157 -0.909766 -4.28919 
2925839 -0.0027819 -0.00275495 -0.00746284 0.00035 12.829 -1.4816 -4.66021 
2951919 -0.00131242 -0.00204673 -0.00868057 0.00045 11.4077 -0.871453 -6.36598 
2925748 -0.0219211 -0.000676904 -0.0068962 0.00045 16.4136 0.0447804 -1.37538 
2925707 -0.0100057 -0.00073331 -0.00582677 0.00055 16.0993 -0.0596568 -1.33141 
2925753 -0.00620127 -0.000856903 -0.00719946 0.00045 15.3104 -0.260178 -2.88036 
2929326 -0.00429135 -0.000378285 -0.00626184 0.00025 13.104 -0.596726 -3.15354 
2931746 -0.00163855 -0.00111458 -0.00868051 0.00035 11.0697 -0.806848 -6.29267 
2936995 -1.95441e-05 -0.0622839 0.101843 0.00025 -0.0300101 -6.09147 8.41404 
2945999 -0.000514626 0.0614041 0.0989663 0.00025 -0.885921 5.31 7.97173 
2955774 -0.0259934 0.000913154 -0.00648744 0.00025 16.4984 0.121297 -1.88951 
2948076 -0.000661072 0.0268444 0.0243335 0.00025 -0.620469 8.64144 7.48877 
2950364 -0.0328688 0.00137539 -0.00645665 0.00025 16.5302 -0.0307455 -1.27312 
2928820 -0.0184388 0.00158741 -0.0069534 0.00035 16.8478 0.368144 -1.47425 
2937399 -0.0089879 0.00131752 -0.00741399 0.00045 15.82 0.25082 -2.54005 
2925771 -0.000562012 0.0142569 0.0145353 0.00035 -0.547618 8.03045 7.59947 
2949454 -0.000920511 0.00421286 0.027536 0.00025 -0.355904 2.21632 11.3461 
2930054 -5.61281e-05 0.0113041 0.0633153 0.00055 -0.065714 1.96648 10.8439 
2951306 -0.000385913 0.0270792 0.0224498 0.00025 -0.32627 9.15658 7.26703 
2954936 0.000145814 0.00858516 -0.00937921 0.00035 5.26842 5.41841 -7.92582 
2946208 -0.113562 -0.00969116 0.00566224 0.00035 11.0621 0.761497 -0.504539 
2920644 -0.000253252 0.0213214 0.100011 0.00025 -0.388969 2.33764 9.79556 
2948018 -0.00056608 -0.0838534 0.0556466 0.00025 -0.661667 -8.55688 4.01954 
2921401 -0.0017628 0.0476773 -0.00714163 0.00045 0.391543 10.966 -2.13628 
2923340 -0.00016736 0.0779704 0.108344 0.00025 -0.227796 5.499 8.43705 
2956307 -0.000206549 -0.0464644 -0.00630834 0.00035 0.401698 -11.849 -1.88807 
2932967 -0.000286761 -0.0455746 -0.00629334 0.00055 -0.129894 -12.0088 -1.85424 
2965176 -3.05192e-05 -0.043609 -0.00609482 0.00035 0.299241 -11.5377 -1.9561 
2919131 -0.000133112 -0.0410871 -0.00642743 0.00025 0.120324 -11.8007 -2.1719 
2940243 -0.113047 -0.00915439 0.00515744 0.00055 10.9644 0.706186 -0.675514 
2927682 -0.000407398 0.0312535 0.0266406 0.00025 -0.53319 8.86513 7.36099 
2927207 -0.00129728 -0.0095572 0.0220079 0.00045 -1.72879 -4.61999 9.46861 
2921917 -0.000618349 0.0585378 0.0943074 0.00025 -0.964837 5.56461 8.46544 
2956049 -0.000514582 0.00447343 0.0217715 0.00025 -0.723465 2.08018 10.9667 
2959125 -0.0149749 -0.0059184 -0.00582019 0.00025 16.651 -0.835963 -2.3114 
2933762 -0.000711396 0.0577967 0.0935295 0.00025 -1.1081 5.38601 8.59866 
2918841 -0.000822652 0.0577622 0.0922906 0.00025 -1.28989 5.26215 8.48471 
2945420 -0.000160573 0.0502624 0.0456027 0.00025 -0.095901 8.01557 6.92969 
2935056 -0.0182781 -0.00383179 -0.00610063 0.00025 16.633 0.0177775 -1.42781 
2931590 -0.015351 -0.00435708 -0.00657361 0.00035 16.6021 -0.0341147 -2.59432 
2952352 -0.0184314 -0.00285241 -0.0058795 0.00025 16.5892 -0.14076 -1.44572 
2958318 -0.0192715 -0.00301514 -0.00539063 0.00025 16.7247 -0.0525818 -1.61858 
2934531 -0.0179787 -0.00258218 -0.00548604 0.00035 16.4954 -0.048302 -1.23202 
2947494 -0.0175572 -0.0026127 -0.00506075 0.00025 16.6141 -0.0471196 -1.33733 
2944343 -0.0162472 -0.00288249 -0.00506343 0.00025 16.6391 0.238158 -1.38841 
2956110 -0.0113116 -0.00216912 -0.00494294 0.00025 16.6786 0.278464 -0.631661 
2944273 -0.0073819 -0.00411983 -0.00637023 0.00025 15.7038 -1.22216 -3.49943 
2949179 -0.0275005 -0.00169031 -0.00529699 0.00035 16.4102 -0.0497447 -1.67969 
2949576 -0.0225237 -0.00195135 -0.00543426 0.00025 16.6795 0.0952069 -1.57871 
2943896 -0.0200671 -0.00185158 -0.00647672 0.00025 16.6963 0.0752045 -2.03384 
2934889 -0.0187597 -0.0018041 -0.00569216 0.00025 16.7178 -0.0220881 -1.5014 
2925887 -0.0183587 -0.00160212 -0.0052538 0.00035 16.6494 0.00320726 -1.30848 
2952448 -0.0176871 -0.00180561 -0.00523659 0.00025 16.6245 0.0802184 -0.962783 
2952512 -0.00875333 -0.00145697 -0.00654208 0.00025 15.7327 -0.124301 -2.87652 
2950044 -0.00483322 -0.0014485 -0.0048248 0.00025 13.3385 -0.484221 -1.70628 
2922829 -0.00462363 -0.00161997 -0.00546688 0.00045 13.8354 -0.596895 -1.55123 
2917166 -0.00409147 -0.00220969 -0.00568986 0.00035 12.7845 -0.582562 -2.22828 
2935400 -0.000391736 0.0256583 0.0160264 0.00025 -0.47571 10.3592 6.27209 
2929399 -0.000252316 0.0626512 0.0994119 0.00025 -0.480264 5.15781 7.38104 
2956188 -0.0384063 -0.000183129 -0.00528667 0.00025 16.6563 -0.143811 -1.58365 
2943347 -0.0338278 -0.000270342 -0.00548526 0.00035 16.5918 -0.015221 -1.28438 
2949428 -0.0318815 -0.000364603 -0.00516072 0.00025 16.6726 -0.246681 -1.6138 
2937358 -0.0287939 -0.000696472 -0.00532743 0.00045 16.4889 0.241364 -0.9319 
2956100 -0.026027 -0.000913643 -0.00515199 0.00025 16.3846 -0.0176749 -1.39295 
2950280 -0.0210789 -0.000791089 -0.00631091 0.00025 16.9301 0.179462 -2.04822 
2925694 -0.0197956 -0.00084545 -0.00610795 0.00055 16.504 0.0191948 -1.93136 
2944465 -0.013985 -0.000768669 -0.00646847 0.00025 17.1492 -0.115594 -3.34522 
2935027 -0.00268801 -0.00109884 -0.00753804 0.00025 11.926 -0.552729 -5.68542 
2946312 -0.000565574 -0.0153963 0.0904326 0.00035 -0.686716 -1.98619 10.2895 
2940413 -0.033833 0.000901316 -0.00546825 0.00035 16.5214 -0.106483 -1.60238 
2946965 -0.0324017 0.00110053 -0.00651402 0.00025 16.815 0.0883028 -2.06978 
2944009 -0.0283612 -8.13233e-05 -0.00593897 0.00025 16.7094 -0.118937 -1.23583 
2952933 -0.0286824 0.000473269 -0.00511921 0.00025 16.4225 0.0826188 -1.11137 
2935046 -0.0282675 0.000320362 -0.00624368 0.00025 16.6505 -0.288021 -1.66897 
2947062 -0.027848 1.30299e-06 -0.00630069 0.00025 16.6744 -0.098415 -1.68461 
2922840 -0.0279401 0.000624602 -0.00570529 0.00045 16.5256 -0.0899212 -1.78898 
2958886 -0.0264835 0.00103619 -0.00525709 0.00025 16.7258 0.244157 -1.82288 
2928779 -0.00886415 0.00070464 -0.00622457 0.00035 15.9662 0.279013 -2.5517 
2938691 -0.0074189 0.00111142 -0.00628719 0.00025 15.6386 0.50456 -3.1457 
2919899 -0.00582625 0.000482639 -0.00624754 0.00045 15.0683 -0.0141858 -3.09877 
2955706 -0.000351372 0.0206527 0.0113489 0.00025 -0.244811 10.4093 5.51297 
2950836 -0.00063423 -0.0228407 0.088521 0.00025 -0.876288 -2.83322 9.98558 
2930728 -0.000117648 -0.0611049 0.0982734 0.00025 -0.197496 -5.7412 8.33339 
2938268 -0.00037241 0.0614027 0.0963659 0.00025 -0.470393 5.18619 8.70812 
2957220 -0.000823875 -0.0199493 0.0855569 0.00025 -1.16176 -2.97762 10.3106 
2942147 -0.000678367 0.0567357 0.0920596 0.00025 -1.14076 5.59377 8.40302 
2937654 -0.00043913 0.0796424 0.0860048 0.00025 -0.721751 5.78333 5.95915 
2933873 -0.000418265 0.0610315 0.0937585 0.00025 -0.574344 4.56724 8.38389 
2954016 -0.000788041 0.0571314 0.0930773 0.00025 -1.0661 5.49967 8.37308 
2963284 -0.000422023 0.0483002 0.0414435 0.00025 -0.342495 7.88918 7.06356 
2961185 -0.000388404 -0.00970116 0.0447562 0.00025 -0.36439 -2.47778 10.6883 
2950131 -0.000152287 0.0231625 0.0063958 0.00025 0.108326 11.4718 2.42592 
2944251 -0.000799464 -0.0203129 0.0865786 0.00025 -1.07782 -2.84852 10.5267 
2937050 -0.000746709 -0.0187528 0.0827147 0.00025 -1.17268 -2.80593 10.4295 
2936823 -0.000221432 -0.0140223 0.0949178 0.00025 -0.248431 -2.15741 9.78959 
2927723 -0.000117214 0.0192299 0.0408929 0.00025 0.615279 5.1225 9.57929 
2943767 -0.00079545 0.0588408 0.0939185 0.00025 -1.0646 5.42509 8.69391 
2954080 -0.000299247 -0.0106939 0.0477398 0.00025 0.110381 -2.31926 10.4655 
2952057 -0.0279107 0.00410825 -0.00588917 0.00035 16.4802 -0.0990195 -2.08336 
2946367 -0.0214327 0.00385555 -0.00560391 0.00025 16.5809 -0.1045 -1.83654 
2955685 -0.00879786 0.00335306 -0.00651288 0.00025 15.8308 0.287612 -2.54841 
2938775 -0.000571993 -0.0225178 0.0875294 0.00025 -0.830758 -3.03025 10.0759 
2943794 -0.000625404 0.0563013 0.0918172 0.00025 -0.805688 5.74054 8.1424 
2920924 -0.000988623 0.0572644 0.0907002 0.00025 -1.37007 5.73273 7.8646 
2937324 -0.000892499 0.0555922 0.0898765 0.00025 -1.34108 5.32588 8.36668 
2934241 -0.000423218 0.0239957 0.0396666 0.00025 -0.377636 6.04976 9.21097 
2949518 -0.00058335 -0.0103515 0.0903474 0.00025 -0.285567 -2.32794 9.63841 
2954364 -0.000586834 -0.0192392 0.0824243 0.00025 -1.07441 -2.88004 10.5896 
2947178 -0.000537825 -0.0122406 0.0906569 0.00025 -0.113939 -2.47649 10.0577 
2921549 -0.00064669 0.025437 0.021012 0.00035 -0.44221 9.01823 6.98798 
2952785 -0.000258242 -0.0214642 0.0323721 0.00025 0.00341301 -6.3186 9.77579 
2941671 -0.000439896 -0.0210893 0.0820446 0.00025 -0.99357 -2.85506 10.5254 
2936460 1.55105e-05 -0.0484378 0.0823148 0.00025 0.629052 -6.10523 7.79067 
2956540 -0.00032645 0.0513084 0.0800825 0.00025 -0.215666 6.52969 8.25268 
2943277 -4.65011e-05 0.0101886 -0.00674835 0.00035 8.52184 6.25491 -4.73703 
2968369 -0.000873585 0.0174531 0.0225849 0.00025 -0.645877 7.17951 8.63424 
2943057 -0.000150611 0.0458109 -0.00644595 0.00025 0.516458 11.5278 -2.2515 
2940897 -0.000758724 -0.0234597 0.0881019 0.00025 -0.99718 -2.40835 10.3856 
2966672 -0.000671339 -0.0437489 -0.00506974 0.00035 -0.0246937 -12.1161 -1.8213 