ITEM: TIMESTEP
955830
ITEM: NUMBER OF ATOMS
32268
ITEM: BOX BOUNDS ff ff ff
-0.705 0.705
-0.1016 0.1016
-0.11 0.11
ITEM: ATOMS id x y z radius vx vy vz 
2946112 -0.123006 -0.0106107 0.00706927 0.00045 9.85557 0.735113 -0.550467 
2946175 -0.121034 -0.0105782 0.00694385 0.00035 10.2116 0.828625 -0.550654 
2949221 -0.117793 -0.0103706 0.0068518 0.00035 10.4908 0.823884 -0.684812 
2952373 -0.12395 -0.0114164 0.00936395 0.00025 9.88967 0.765104 -0.811694 
2956118 -0.137921 -0.0124177 0.00987315 0.00025 8.36985 0.722724 -0.892271 
2949779 -0.140237 -0.00938817 0.0105138 0.00025 8.11322 0.417827 -0.591139 
2951877 -0.112185 0.00155981 0.0201234 0.00055 10.9023 -0.151969 -1.84057 
2946572 -0.000348926 0.0713666 -0.109144 0.00025 -0.317221 4.8034 -9.48088 
2944296 -0.000123793 0.0776269 -0.107426 0.00025 -0.0941559 5.30638 -8.85595 
2943516 -0.00291931 0.0963759 -0.108292 0.00025 -0.576753 7.51224 -8.84998 
2941485 -0.00328025 0.0727969 -0.107507 0.00025 -0.658579 5.97356 -10.2275 
2944345 -0.000328275 0.0808441 -0.107035 0.00025 -0.191545 5.82333 -8.96989 
2937665 -0.00278374 0.0828139 -0.106684 0.00025 -0.596669 6.06802 -8.8843 
2938267 -0.00139298 0.0844184 -0.106928 0.00025 -0.310118 6.92278 -9.51192 
2923533 -0.000270269 0.083873 -0.106898 0.00025 -0.129367 6.60348 -9.28336 
2935853 -0.0035178 -0.000615578 -0.107372 0.00025 -1.19379 0.710837 -11.3275 
2919402 -0.00333065 0.0688408 -0.107283 0.00025 -0.718056 5.61801 -10.1931 
2932257 -0.00709125 0.0783583 -0.106269 0.00025 -1.28472 6.66624 -9.97819 
2937719 -0.00698738 0.0821538 -0.106924 0.00025 -1.12496 7.04315 -9.91175 
2932534 -0.000697354 0.0838068 -0.10661 0.00025 -0.327499 6.64618 -9.43041 
2938215 -0.00146429 0.0840472 -0.105838 0.00025 -0.552924 6.44555 -9.08621 
2939976 -0.00305742 -0.0206254 -0.106688 0.00025 -1.02971 -2.55088 -11.4415 
2940146 -0.0025871 -0.017088 -0.105876 0.00025 -0.975342 -1.99543 -11.0924 
2932210 -0.00238437 0.0823895 -0.10489 0.00025 -0.519376 6.99658 -9.65429 
2927375 -0.000625896 0.0818923 -0.104879 0.00035 -0.22699 6.86398 -9.68704 
2949919 -0.00185844 0.0831619 -0.104305 0.00025 -0.427685 6.16839 -8.70588 
2944421 -0.00165439 0.0841754 -0.104608 0.00025 -0.5537 6.70422 -9.24028 
2933233 -0.00113032 0.0842142 -0.105353 0.00035 -0.344841 6.7688 -9.21674 
2920844 -0.000592552 0.0845245 -0.105334 0.00025 -0.239842 6.64054 -9.18428 
2944025 -0.000680776 0.0852771 -0.105238 0.00025 -0.250167 6.85434 -8.98017 
2941532 -0.00452256 0.0883791 -0.105434 0.00025 -0.747397 7.65085 -9.62521 
2951281 -0.00786839 0.0779931 -0.10353 0.00025 -1.27793 6.50207 -9.53988 
2950991 -0.00178926 0.0876327 -0.104099 0.00025 -0.37343 7.53225 -9.43091 
2935023 -0.0028069 0.0874597 -0.103551 0.00025 -0.607429 6.64345 -8.62932 
2944005 -0.00122448 0.088442 -0.103951 0.00025 -0.259548 7.5312 -9.36631 
2957270 -0.00144608 0.000591944 -0.103747 0.00025 -0.728822 0.814743 -11.0753 
2924373 -0.00246603 0.0853903 -0.102549 0.00035 -0.580152 7.42676 -9.33912 
2931388 -0.005676 0.088423 -0.101691 0.00025 -0.971235 6.73679 -8.45753 
2943476 -0.00228296 0.0903585 -0.102961 0.00025 -0.418825 7.72206 -9.2408 
2941394 -0.00120865 0.0902803 -0.102749 0.00025 -0.264518 7.59645 -9.14648 
2934836 -0.000625969 -0.0973426 -0.10086 0.00025 -0.728962 -6.80556 -8.35254 
2945173 -0.00146966 -0.0218207 -0.102704 0.00025 -0.733319 -2.84132 -10.9042 
2952491 -0.00183269 -0.0165686 -0.103251 0.00025 -0.946351 -1.8093 -11.3791 
2945237 -0.00537759 0.0633107 -0.102448 0.00025 -1.33702 4.93587 -9.72289 
2943073 -0.00969296 0.0864122 -0.101148 0.00025 -1.54971 7.53317 -9.27693 
2931977 -0.0104083 0.0895201 -0.101262 0.00025 -1.64341 7.90927 -9.24587 
2934767 -0.00721272 0.0921486 -0.100979 0.00025 -1.15155 8.1337 -9.17149 
2926194 -0.000568698 0.0915311 -0.101779 0.00025 -0.169637 7.72376 -8.9556 
2938188 -0.000861838 0.09173 -0.101223 0.00025 -0.330733 7.70085 -8.95364 
2938108 -0.00607572 0.0758998 -0.10083 0.00025 -1.07346 6.30447 -9.29473 
2950864 -0.00327724 -0.0142687 -0.100076 0.00025 -1.09319 -1.5015 -10.4691 
2942646 -0.00635922 0.0736932 -0.0992453 0.00025 -1.13262 6.17996 -9.25521 
2944552 -0.00568836 0.0814609 -0.0993575 0.00025 -1.08797 7.10989 -9.18922 
2931880 -0.000992667 0.0890024 -0.0994463 0.00025 -0.433732 7.12906 -8.67095 
2933956 -0.000678751 0.0952726 -0.0987705 0.00025 -0.194009 8.25727 -8.75827 
2947800 -0.00179191 -0.0133812 -0.0993734 0.00025 -0.738272 -1.38835 -10.38 
2951657 -0.00152218 -0.010763 -0.0990359 0.00025 -0.713618 -0.854464 -10.4089 
2939020 -0.00628851 0.0794168 -0.0984581 0.00035 -1.23746 6.88041 -9.09663 
2941367 -0.00132048 0.0804484 -0.0986101 0.00025 -0.476418 6.82748 -9.04599 
2934539 -0.00097609 0.0862011 -0.0977868 0.00035 -0.388417 7.54527 -8.95724 
2951340 -0.00728316 0.0871435 -0.0980013 0.00025 -1.2777 7.67058 -8.95919 
2944095 -0.000798023 0.0874238 -0.0972635 0.00025 -0.389919 7.26949 -8.45592 
2940549 -0.00646931 0.0891166 -0.0983425 0.00025 -1.08234 7.83087 -8.97279 
2925491 -0.0016151 -0.0237574 -0.0984871 0.00025 -0.577099 -2.90421 -10.8343 
2946604 -0.00577367 0.0767345 -0.0972531 0.00025 -1.15446 6.43469 -8.997 
2927350 -0.00124312 0.080263 -0.0974284 0.00035 -0.568902 7.14279 -9.14416 
2942802 -0.00797209 0.0876552 -0.0965364 0.00025 -1.3527 7.69769 -8.8351 
2953709 -0.00134654 -0.0157554 -0.0969718 0.00025 -0.652003 -1.71996 -9.98037 
2932363 -0.000457761 -0.0130362 -0.0965932 0.00025 -0.380567 -1.21958 -10.1616 
2918506 -0.00513854 0.085844 -0.0955222 0.00035 -1.10464 7.73591 -8.8869 
2943468 -0.0135893 0.0878515 -0.0957012 0.00025 -2.16471 7.8272 -8.82962 
2929286 -0.00548623 0.0972257 -0.0958495 0.00025 -0.915648 8.64271 -8.58081 
2912656 -0.00275322 -0.0973382 -0.0937909 0.00045 -0.132262 -8.65014 -8.48495 
2921604 -0.00441969 0.0863874 -0.0928734 0.00035 -0.959763 7.83301 -8.70802 
2946961 -0.00404809 0.0988074 -0.0932549 0.00025 -0.735044 8.83997 -8.28637 
2938969 -0.00195644 0.00857061 -0.0952363 0.00035 -0.0378545 1.30657 -12.3743 
2925845 -0.0018011 0.0836059 -0.0916684 0.00035 -0.643646 7.48572 -8.46071 
2933036 -0.00531869 0.00930503 -0.0946328 0.00045 -0.636569 1.30186 -12.2703 
2924266 -0.00390289 0.0103549 -0.0936994 0.00045 -0.311684 1.42294 -12.2591 
2942092 -0.00297964 0.0728044 -0.0906571 0.00025 -0.689229 6.08246 -8.21716 
2923070 -0.00647881 0.0886191 -0.091256 0.00035 -1.33714 8.06434 -8.49411 
2945850 -0.0129125 0.0903895 -0.0912994 0.00025 -2.02807 8.05059 -8.22533 
2943139 -0.00828842 0.0979233 -0.0903808 0.00025 -1.41967 8.92518 -8.06652 
2950505 -0.00110517 0.0089266 -0.0927067 0.00035 0.19151 1.36764 -12.2281 
2930126 -0.00225228 0.0135338 -0.0924807 0.00045 -0.0701037 1.84363 -12.1947 
2925964 -0.00792509 0.091919 -0.0899208 0.00035 -1.47333 8.03178 -7.94263 
2921362 -0.00608667 -0.00144341 -0.0919009 0.00045 -0.921189 -0.0533578 -12.0834 
2921381 -0.00206045 0.00714136 -0.0917491 0.00045 -0.0210515 1.02019 -12.2387 
2930117 -0.0051456 0.0234183 -0.0912016 0.00045 -0.716657 2.99145 -11.9108 
2941734 -0.00117568 0.00644249 -0.0906299 0.00045 0.175948 1.0914 -12.2605 
2930290 -0.00176871 0.0850486 -0.0876958 0.00035 -0.632773 7.71974 -8.09007 
2927506 -0.00866922 0.0942507 -0.0866632 0.00025 -1.45496 8.53145 -7.61732 
2924287 -0.000828053 -0.0115987 -0.0896022 0.00045 -0.0139758 -1.56918 -12.3058 
2935883 -0.00591025 0.000257058 -0.0898632 0.00055 -0.726426 0.180305 -12.0028 
2938999 -6.05141e-06 0.0159162 -0.0897264 0.00035 1.22381 2.18596 -11.7346 
2925855 -0.00141913 0.10041 -0.086281 0.00035 -0.445268 9.21889 -7.5499 
2959045 -0.00085495 -0.0183019 -0.0878231 0.00025 -0.0468778 -2.56459 -11.6455 
2944674 -0.00171046 0.0222071 -0.0881136 0.00035 0.0508132 2.84981 -11.5921 
2941995 -0.00174842 0.0720863 -0.085585 0.00025 -0.559551 6.25313 -8.18106 
2948012 -0.00691337 0.0849538 -0.0853683 0.00025 -1.33088 7.74872 -7.84897 
2949924 -0.0125878 0.0916128 -0.0849019 0.00025 -2.06864 8.24325 -7.5292 
2943163 -0.110984 -0.00147814 0.0198307 0.00045 10.6625 -0.335584 -2.01669 
2941814 -0.0016009 0.0280538 -0.0868075 0.00035 0.0213925 3.67361 -11.6033 
2915525 -0.00657587 0.00032111 -0.085029 0.00055 -0.835006 0.18586 -11.5214 
2936996 -0.00223689 0.0830472 -0.0810827 0.00025 -0.693156 7.64391 -7.47321 
2921358 -0.00146767 0.0307074 -0.0832802 0.00045 0.118594 4.0722 -11.1835 
2927394 -0.000435115 0.0848816 -0.0808821 0.00035 -0.444718 8.12358 -7.64627 
2931519 -0.000259455 0.0315413 -0.0810357 0.00055 0.270647 4.42582 -11.0968 
2948422 -0.00172178 0.0864622 -0.0779574 0.00025 -0.525435 8.1513 -6.97988 
2932136 -0.00367932 0.0892771 -0.0760108 0.00025 -0.93761 8.43794 -6.72998 
2948023 -0.0012472 0.0619905 -0.0770534 0.00025 -0.851088 6.23114 -8.74772 
2919897 -0.0024693 0.0691637 -0.0783189 0.00045 -0.306453 8.53798 -9.96075 
2949653 -0.000360557 0.070708 -0.0747295 0.00025 -0.300817 7.34223 -8.04404 
2944884 -0.000966027 0.067406 -0.0738714 0.00025 -0.704777 7.22549 -8.3437 
2944271 -0.00123911 0.06919 -0.0744952 0.00025 -0.525681 7.18038 -7.96003 
2941968 -0.00102549 0.0703729 -0.0748191 0.00035 -0.0365046 8.71783 -9.49516 
2951528 -0.000788962 -0.0104494 -0.0750208 0.00025 -0.948466 -1.27539 -10.161 
2939013 -0.000548697 0.0713508 -0.074221 0.00035 0.0544091 8.97227 -9.60273 
2935978 -9.20187e-05 0.0662769 -0.0730918 0.00035 -0.0493385 8.0041 -8.95265 
2942609 -0.000771792 0.0702038 -0.0723177 0.00025 -0.64771 7.81193 -8.17174 
2959209 -0.0019346 0.0599341 -0.071374 0.00045 -0.174843 7.73585 -9.47202 
2921345 -0.00855101 0.0642401 -0.0716294 0.00055 -1.32768 8.23285 -9.42166 
2953366 -0.0044631 0.0624481 -0.0706565 0.00045 -0.559988 8.14709 -9.3756 
2948075 -0.000175407 0.0618723 -0.0704434 0.00025 0.278709 7.94918 -9.24047 
2950688 -0.00164524 0.062934 -0.0697123 0.00035 -0.116888 7.89834 -9.05473 
2933033 -0.00600357 0.0661961 -0.0691891 0.00045 -0.945133 8.50509 -9.0849 
2921377 -0.000329566 0.0750631 -0.0685764 0.00045 0.0262397 9.16174 -8.41498 
2934422 -0.00301137 0.0643421 -0.0686032 0.00055 -0.33629 8.46553 -9.28998 
2937376 -0.00285237 0.0734857 -0.0683529 0.00045 -0.384728 9.5126 -8.90208 
2943690 -0.00210773 -0.0907238 -0.0650989 0.00025 -1.73731 -9.19824 -6.31045 
2930897 -0.00210974 0.0958369 -0.0642607 0.00025 -1.72174 7.71537 -6.60038 
2921376 -0.00215476 0.0681577 -0.0636977 0.00045 -0.221427 8.96436 -8.4836 
2939567 -0.00128961 0.0934563 -0.0618019 0.00025 -1.35333 7.01396 -5.99784 
2947247 -0.00190651 0.0598805 -0.06083 0.00025 -0.768912 8.03576 -8.03209 
2922787 -0.00147824 0.0656289 -0.06083 0.00055 -0.18201 9.02148 -8.41472 
2939492 -0.000276528 0.0662067 -0.0594852 0.00025 -0.293596 9.42172 -7.9686 
2922014 -0.00193788 0.0526809 -0.0578992 0.00025 -1.37952 7.06287 -8.58146 
2932965 -0.000229221 0.0817267 -0.0527071 0.00055 0.715158 10.1572 -6.57273 
2915520 -0.002096 0.0877777 -0.0527489 0.00055 -0.0719643 10.5529 -6.41718 
2927818 -0.00136198 0.0526306 -0.0519821 0.00025 -1.12057 7.17446 -7.17934 
2965063 1.09639e-05 0.0286892 -0.0516055 0.00035 0.829178 5.99619 -11.1506 
2924407 -0.00013319 0.0276977 -0.0501505 0.00035 0.823695 5.81924 -11.155 
2932981 -0.00112405 0.00320292 -0.0493078 0.00055 -0.185127 1.0027 -12.5206 
2946864 -0.00203486 0.047116 -0.0440669 0.00025 -2.20889 8.35063 -7.49858 
2945153 -0.000237996 -0.101077 -0.0351198 0.00025 0.247759 -10.9112 -4.06697 
2935878 -0.000383056 0.0336173 -0.0384051 0.00055 -0.150681 7.9321 -9.38247 
2925648 -0.000182465 0.0744531 -0.0345238 0.00025 0.543662 10.9345 -4.61403 
2947529 -1.33027e-05 0.0371985 -0.0375651 0.00045 0.22739 8.53415 -9.10948 
2945578 -0.000487508 0.070977 -0.0330126 0.00025 -0.269305 10.1546 -4.47356 
2956231 -0.000178347 0.0341355 -0.0319284 0.00055 0.0388905 8.91184 -8.57365 
2952006 -4.98806e-05 0.0448164 -0.0286132 0.00035 0.209215 10.1786 -6.62035 
2957174 -0.00019221 0.0737489 -0.0255683 0.00025 0.187922 11.0497 -3.47237 
2918447 -0.00103437 -0.0474353 -0.0263813 0.00045 0.118037 -10.4326 -6.11495 
2950580 -0.000285134 0.0467525 -0.0260477 0.00035 0.447168 10.6276 -6.12422 
2950607 3.17585e-06 0.0489853 -0.0255317 0.00035 0.912535 10.4309 -5.84323 
2918437 -0.000499921 0.0211884 -0.0269161 0.00055 -0.394514 7.61888 -10.1526 
2938479 -0.00188589 -0.0739411 -0.0176406 0.00025 -2.06545 -10.9276 -3.18531 
2961030 -2.61543e-05 0.0386272 -0.0206887 0.00025 0.301102 10.6462 -5.99892 
2938798 -0.00178757 -0.0853054 -0.0164497 0.00045 -0.135279 -11.5185 -2.31019 
2933906 -0.00127023 -0.0679795 -0.0169143 0.00025 -1.41165 -9.45055 -3.21839 
2924261 -0.000129316 -0.0408429 -0.0184482 0.00045 0.170373 -11.0233 -5.52953 
2937661 -0.0001993 0.0190383 -0.022308 0.00025 0.0264807 7.43369 -9.89525 
2956189 -0.00147322 -0.0678916 -0.0163935 0.00025 -1.37234 -9.18059 -3.16914 
2933230 -0.000248433 0.0206759 -0.0210095 0.00035 -0.050434 8.90369 -9.7475 
2951903 -0.00127556 0.0505935 -0.0168877 0.00045 0.269008 10.856 -3.87566 
2954821 -0.000518418 0.0505865 -0.0153169 0.00045 0.582777 11.3042 -3.41684 
2924258 -0.000102192 0.0560841 -0.0144433 0.00045 0.386813 11.2929 -2.77416 
2943199 -0.000811501 0.0570811 -0.0148223 0.00045 0.484195 11.4235 -3.08715 
2923897 -0.00155004 -0.0720136 -0.0130721 0.00025 -1.58003 -10.2316 -2.30469 
2940300 -0.000112228 -0.0527327 -0.0140103 0.00045 0.666926 -11.7484 -3.46932 
2944648 -0.00037907 0.0255677 -0.0177784 0.00045 -0.138262 10.6733 -7.44931 
2967464 -0.00172563 -0.0759244 -0.0123633 0.00025 -1.72287 -11.4032 -2.2623 
2968388 -0.000142133 -0.0275858 -0.0150895 0.00025 0.0845514 -10.2781 -6.22959 
2952067 -0.11258 0.0105425 0.00956403 0.00035 10.9898 -0.856749 -1.07791 
2943160 -0.111423 0.010081 0.009187 0.00045 11.1284 -0.751596 -1.08437 
2942762 -0.000872038 0.0585182 0.0947759 0.00025 -1.07809 5.7539 8.53491 
2950528 -0.000132877 0.0514678 -0.0123598 0.00035 1.14872 11.2439 -2.80388 
2944653 -0.000867128 0.0529368 -0.0128372 0.00045 0.502548 11.3173 -2.88073 
2935924 -0.000148496 -0.0494014 -0.0107534 0.00045 0.253809 -11.5945 -2.78631 
2934463 -0.109457 0.0101218 0.0108069 0.00045 11.5175 -0.851095 -1.08407 
2947243 -0.001347 -0.00226928 -0.0120928 0.00025 9.44489 -1.1049 -7.9054 
2929756 -0.00122485 -0.000866594 -0.0121562 0.00025 9.30806 -0.920625 -8.00244 
2958099 -0.000634146 0.000379689 -0.012367 0.00025 8.48241 0.844586 -8.32931 
2934689 -0.000650039 0.0012257 -0.0121359 0.00035 8.8262 0.946199 -8.31771 
2961746 0.000127022 0.00114464 -0.012906 0.00025 7.52312 0.823896 -9.013 
2935035 -0.000179786 0.0646642 0.100278 0.00025 -0.326396 5.84438 7.56136 
2940369 -0.000232734 -0.0222624 0.0956964 0.00035 -0.250391 -2.83633 9.707 
2923283 -0.000854942 -0.0224659 0.0918368 0.00025 -0.474816 -3.06525 9.62706 
2931543 0.000113561 0.00225737 -0.0117689 0.00045 9.27177 0.868157 -7.92428 
2931106 -0.000327195 0.0389783 0.0921717 0.00025 -0.542776 3.86681 9.33843 
2949914 -0.000103935 0.000313826 0.0919379 0.00025 0.343038 -1.01904 9.81156 
2940455 -0.109675 -0.0101285 0.00772345 0.00035 11.4154 0.870809 -0.891804 
2937328 -0.109721 0.0101318 0.00977953 0.00055 11.2763 -0.823994 -1.04769 
2953617 -0.000620768 -0.0238101 0.0884133 0.00025 -0.992393 -2.6455 10.3529 
2931161 -0.000109803 0.0880648 0.0813295 0.00025 -0.196842 7.35378 5.69467 
2940728 -0.000135053 0.0478648 0.079271 0.00025 -0.0409532 6.33434 7.89924 
2951793 -0.000868325 -0.0454812 0.0831152 0.00025 -0.944376 -6.83104 8.46874 
2920248 -0.000422549 0.0216323 -0.0137982 0.00025 -0.149814 9.44063 -6.49451 
2959862 -6.47262e-05 0.0513532 -0.0106284 0.00025 0.647543 10.7899 -2.58412 
2942644 -0.000309237 -0.037255 0.0743141 0.00025 -0.848209 -5.84294 8.90299 
2937335 -0.109036 -7.77373e-05 -0.000109448 0.00055 11.8002 0.190516 -0.448904 
2946135 -0.109203 -0.000916717 -0.000664577 0.00035 11.7019 -0.00978879 -0.0767836 
2947467 -0.11161 -0.0100156 0.00669418 0.00025 11.6608 0.804231 -0.526635 
2934418 -0.11376 -0.0104256 0.00943828 0.00055 10.5308 0.811039 -0.793142 
2954567 -0.00010039 -0.0197211 0.0740422 0.00025 0.595698 -3.09462 9.46174 
2956718 -0.000328605 -0.0159573 0.0712406 0.00025 -0.0729888 -3.58917 9.18216 
2949693 -0.00772339 -0.00217164 -0.00872106 0.00025 15.6296 -0.011316 -2.54524 
2954390 -0.000271938 -0.0116057 0.0665835 0.00025 -0.300406 -2.53006 9.84772 
2935127 -0.00696081 0.000142065 -0.00889233 0.00025 15.2077 0.0684883 -2.46386 
2919896 -0.00148967 0.0011223 -0.0108362 0.00045 10.1901 0.785745 -6.83357 
2940553 -0.000914859 0.000582877 -0.0119097 0.00025 8.54837 0.863266 -7.96956 
2952332 -0.000599441 0.000724029 -0.0113942 0.00025 9.01695 0.411984 -8.18442 
2947399 -0.000278036 0.0010712 -0.0116659 0.00025 8.73381 0.788084 -8.16537 
2940267 -0.000250252 0.00113408 -0.0105583 0.00045 9.4662 0.701858 -7.27387 
2952095 4.92176e-05 0.000391615 -0.01181 0.00035 8.15484 0.541426 -8.34323 
2925540 -0.000802944 0.0578738 0.0939251 0.00025 -1.08998 5.40772 8.63548 
2920000 -0.00176058 0.00192065 -0.0106353 0.00035 9.38081 1.03273 -6.84399 
2946164 -0.000737662 0.00181879 -0.0107406 0.00035 9.80491 0.780826 -7.71454 
2939780 -0.000334023 0.0770952 0.0620332 0.00025 -0.11692 6.91472 5.48149 
2969983 -0.000372177 -0.00768399 0.0446165 0.00025 -0.342969 -2.09218 10.8496 
2924115 -2.05792e-06 0.0460905 -0.00955255 0.00025 0.696152 11.0155 -2.59913 
2924410 -0.000627818 0.0489465 -0.0102406 0.00035 0.881249 11.2621 -2.9175 
2957607 -0.000127436 0.04858 -0.0103749 0.00025 1.1584 10.7558 -2.79094 
2920045 -0.000400135 -0.051895 -0.00789951 0.00035 0.660067 -11.8879 -2.27638 
2949864 -0.000168021 -0.0908372 0.0380583 0.00025 0.00449695 -9.18 4.15547 
2950474 -0.00131162 -0.0469084 -0.00886251 0.00045 -0.266728 -11.8988 -2.43141 
2960468 -0.000272724 -0.0442414 -0.00819811 0.00025 0.612143 -11.5486 -2.38215 
2922799 -0.000446785 -0.041864 -0.00932004 0.00055 -0.159417 -11.8961 -2.83753 
2940234 -0.110289 0.00992616 0.00886454 0.00055 11.2745 -1.03153 -0.90467 
2952239 -0.00811143 -0.00279197 -0.00884981 0.00025 16.1968 -0.0992399 -2.32905 
2950216 -0.00276081 -0.00373918 -0.00886185 0.00025 11.5875 -2.2166 -5.59602 
2920819 -0.000274512 -0.0163829 0.0382987 0.00025 -0.104233 -4.68301 10.2261 
2952920 -0.00800816 -0.00196589 -0.00830672 0.00025 15.6669 -0.39103 -3.3578 
2949262 -0.000217301 -0.0236848 0.0942842 0.00025 0.348241 -2.94952 8.83593 
2947088 -0.000677946 -0.00048247 -0.0103671 0.00025 8.69535 -0.805053 -7.52816 
2935404 -0.00112899 0.000948275 -0.010272 0.00025 10.1786 0.64221 -6.69302 
2928813 -0.0073118 0.00122426 -0.00837617 0.00035 15.4491 0.291135 -2.70412 
2955046 -0.000965765 0.00248691 -0.00960982 0.00035 9.88537 0.795083 -6.48599 
2951944 -0.000198518 0.00224605 -0.0106702 0.00035 9.28589 0.955913 -7.96271 
2940891 -0.000407314 -0.0177255 0.0931561 0.00025 -0.251142 -2.55681 10.111 
2938553 -0.000179985 0.0188291 0.0892219 0.00025 -0.232631 2.75417 10.3052 
2950554 -0.000268086 0.0478656 -0.00938516 0.00035 0.484618 11.3511 -2.71157 
2936049 -0.0007538 0.0482393 -0.0090506 0.00035 0.684159 11.4567 -2.55772 
2947746 5.27393e-06 0.0517032 -0.00914005 0.00035 0.619848 11.3409 -2.43701 
2952334 -0.110205 -0.00801915 0.00536045 0.00025 11.581 0.792532 -0.621856 
2938950 -0.000615313 -0.0201195 0.0835656 0.00035 -1.02162 -3.10489 10.4455 
2939723 -0.000605375 -0.0443857 0.0757906 0.00025 -0.696208 -5.61646 9.04091 
2927403 -0.000127183 -0.050505 -0.00758199 0.00035 0.969882 -11.7694 -2.29957 
2962494 -1.72124e-05 -0.0472206 -0.00762567 0.00025 1.32735 -12.0028 -2.28989 
2940021 -0.000721916 -0.0422673 0.0736879 0.00025 -0.936026 -5.65049 8.84847 
2955092 -1.0554e-05 -0.0441548 -0.00655668 0.00025 0.387321 -11.6108 -1.76662 
2971248 6.20526e-06 -0.0432379 -0.00773476 0.00025 0.720051 -11.1163 -2.2261 
2970094 -0.000135689 -0.0395412 -0.00685157 0.00025 -0.0568643 -10.9923 -2.26713 
2972187 -0.000117912 -0.0403721 -0.00807167 0.00025 0.107208 -11.2599 -2.63956 
2933640 -0.000195057 -0.0391399 -0.00754098 0.00025 0.486608 -11.0853 -2.47424 
2935668 -0.000217369 -0.0259753 -0.00861366 0.00025 0.318975 -10.5302 -4.24043 
2964250 -0.000174606 0.0330464 0.0297564 0.00025 -0.0177443 8.58075 7.39012 
2933659 -0.000433783 0.0355548 0.0249897 0.00025 0.0366388 9.61148 6.68304 
2931238 -0.000635681 -0.0418366 0.0721508 0.00025 -0.681764 -5.41722 8.90616 
2941110 -0.0211458 -0.00242769 -0.0074418 0.00025 16.3477 0.306927 -1.67486 
2931511 -0.0208359 -0.00252196 -0.00671185 0.00055 16.3503 0.107262 -1.68027 
2956033 -0.0182217 -0.00305244 -0.0061716 0.00025 16.614 -0.0417464 -1.2888 
2952297 -0.0207781 -0.00151191 -0.00694524 0.00025 16.6097 0.0818353 -1.78821 
2952338 -0.0197843 -0.00201315 -0.00738504 0.00025 16.7139 -0.00361954 -2.14019 
2952984 -0.0194915 -0.00157303 -0.00683495 0.00025 16.8023 0.0013451 -1.92019 
2941498 -0.0192301 -0.00116927 -0.00700971 0.00025 16.8638 0.0974896 -1.69733 
2920633 -0.0152515 -0.00190151 -0.00761908 0.00025 16.65 -0.0535365 -2.62327 
2934541 -0.0146099 -0.00170082 -0.00775756 0.00035 16.6159 -0.158648 -3.14384 
2928882 -0.00342009 -0.00257247 -0.007874 0.00035 13.2981 -0.91774 -4.26644 
2925839 -0.00291113 -0.00274051 -0.00741684 0.00035 13.0324 -1.40438 -4.53246 
2951919 -0.00142691 -0.00203794 -0.00861722 0.00045 11.5016 -0.884546 -6.29403 
2925748 -0.0220852 -0.000677354 -0.0068826 0.00045 16.4133 0.0452175 -1.35036 
2925707 -0.0101667 -0.000732723 -0.00581319 0.00055 16.0993 -0.0570054 -1.37466 
2925753 -0.00635504 -0.000854303 -0.00717092 0.00045 15.4431 -0.257027 -2.82435 
2929326 -0.00442289 -0.000372294 -0.00623059 0.00025 13.204 -0.598729 -3.09492 
2931746 -0.00174971 -0.00110645 -0.00861793 0.00035 11.1751 -0.817355 -6.21388 
2936995 -1.9244e-05 -0.062223 0.101759 0.00025 -0.0300101 -6.09147 8.41404 
2945999 -0.000505767 0.061351 0.0988866 0.00025 -0.885921 5.31 7.97173 
2955774 -0.0261583 0.000912009 -0.00646858 0.00025 16.4997 0.109595 -1.88401 
2948076 -0.000654857 0.026758 0.0242586 0.00025 -0.623377 8.64428 7.49012 
2950364 -0.0330342 0.00137567 -0.00644403 0.00025 16.5372 -0.026599 -1.26283 
2928820 -0.0186072 0.00158379 -0.00693881 0.00035 16.8473 0.358737 -1.4489 
2937399 -0.00914626 0.00131503 -0.00738861 0.00045 15.8531 0.250557 -2.53411 
2925771 -0.000556466 0.0141766 0.0144593 0.00035 -0.560685 8.02956 7.6018 
2949454 -0.000916871 0.00419068 0.0274225 0.00025 -0.371976 2.21922 11.3555 
2930054 -5.547e-05 0.0112844 0.0632068 0.00055 -0.0659256 1.96601 10.8451 
2951306 -0.000382646 0.0269876 0.0223771 0.00025 -0.327252 9.1593 7.26874 
2954936 9.17116e-05 0.00853124 -0.00930198 0.00035 5.6259 5.35959 -7.46937 
2946208 -0.113672 -0.00969873 0.00566735 0.00035 11.0774 0.751384 -0.514183 
2920644 -0.000249362 0.021298 0.0999135 0.00025 -0.388969 2.33764 9.79556 
2948018 -0.000559457 -0.0837678 0.0556064 0.00025 -0.663072 -8.55665 4.01856 
2921401 -0.00176664 0.0475677 -0.00712027 0.00045 0.378389 10.9662 -2.13546 
2923340 -0.000165082 0.0779154 0.108259 0.00025 -0.227796 5.499 8.43705 
2956307 -0.000210565 -0.0463461 -0.00628949 0.00035 0.401487 -11.8135 -1.88172 
2932967 -0.000285416 -0.0454545 -0.00627481 0.00055 -0.139012 -12.0171 -1.85191 
2965176 -3.34413e-05 -0.0434937 -0.00607529 0.00035 0.28515 -11.5314 -1.94981 
2919131 -0.000134313 -0.0409691 -0.00640571 0.00025 0.119978 -11.8011 -2.17195 
2940243 -0.113157 -0.00916141 0.00516425 0.00055 10.9783 0.698303 -0.683391 
2927682 -0.000402001 0.0311649 0.0265669 0.00025 -0.545946 8.86841 7.36218 
2927207 -0.00127993 -0.00951099 0.0219132 0.00045 -1.74111 -4.62174 9.46867 
2921917 -0.000608701 0.0584821 0.0942228 0.00025 -0.964837 5.56461 8.46544 
2956049 -0.000508857 0.00445277 0.0216624 0.00025 -0.43266 2.0606 10.8515 
2959125 -0.0151415 -0.00590997 -0.00579706 0.00025 16.6568 -0.844123 -2.31229 
2933762 -0.000700315 0.0577428 0.0934435 0.00025 -1.1081 5.38601 8.59866 
2918841 -0.000809753 0.0577096 0.0922058 0.00025 -1.28989 5.26215 8.48471 
2945420 -0.000159615 0.0501822 0.0455334 0.00025 -0.0957768 8.0159 6.92983 
2935056 -0.0184445 -0.00383206 -0.00608642 0.00025 16.6323 0.0315619 -1.41625 
2931590 -0.0155171 -0.00435669 -0.00654762 0.00035 16.602 -0.040978 -2.59683 
2952352 -0.0185973 -0.00285109 -0.00586511 0.00025 16.5885 -0.127371 -1.43428 
2958318 -0.0194387 -0.0030147 -0.00537451 0.00025 16.7243 -0.0390688 -1.60771 
2934531 -0.0181437 -0.00258178 -0.00547379 0.00035 16.4944 -0.0347099 -1.22003 
2947494 -0.0177233 -0.00261232 -0.00504745 0.00025 16.6132 -0.0334201 -1.32544 
2944343 -0.0164136 -0.00288483 -0.00504953 0.00025 16.6397 0.231273 -1.39237 
2956110 -0.0114787 -0.00217183 -0.0049364 0.00025 16.7205 0.268878 -0.674108 
2944273 -0.00753921 -0.00410761 -0.00633525 0.00025 15.7559 -1.22342 -3.49414 
2949179 -0.0276647 -0.0016898 -0.0052801 0.00035 16.4152 -0.0515435 -1.69966 
2949576 -0.0226905 -0.0019523 -0.00541863 0.00025 16.6797 0.0957466 -1.55406 
2943896 -0.0202341 -0.00185234 -0.00645653 0.00025 16.6963 0.0757985 -2.01038 
2934889 -0.0189269 -0.00180389 -0.00567743 0.00025 16.7185 -0.0203088 -1.46003 
2925887 -0.0185252 -0.00160217 -0.005241 0.00035 16.6498 0.0050414 -1.26669 
2952448 -0.0178533 -0.00180643 -0.00522726 0.00025 16.6246 0.0825867 -0.91805 
2952512 -0.00891099 -0.00145571 -0.00651335 0.00025 15.7999 -0.12652 -2.86505 
2950044 -0.00496716 -0.00144361 -0.00480779 0.00025 13.4546 -0.487618 -1.6967 
2922829 -0.00476248 -0.00161395 -0.00545141 0.00045 13.9377 -0.600659 -1.54393 
2917166 -0.00421972 -0.00220382 -0.00566755 0.00035 12.8688 -0.586881 -2.23515 
2935400 -0.000386956 0.0255547 0.0159636 0.00025 -0.480389 10.3644 6.2747 
2929399 -0.000247649 0.0625999 0.0993381 0.00025 -0.452487 5.0857 7.37461 
2956188 -0.0385728 -0.000181686 -0.00527069 0.00025 16.6544 -0.145222 -1.60948 
2943347 -0.0339937 -0.000270155 -0.00547252 0.00035 16.5925 -0.0227783 -1.26666 
2949428 -0.0320483 -0.000362179 -0.00514469 0.00025 16.6738 -0.238172 -1.59165 
2937358 -0.0289588 -0.000698879 -0.00531802 0.00045 16.4942 0.240219 -0.950175 
2956100 -0.0261908 -0.000913473 -0.00513818 0.00025 16.3855 -0.0163152 -1.36944 
2950280 -0.0212482 -0.000792888 -0.00629058 0.00025 16.9308 0.180342 -2.02479 
2925694 -0.0199606 -0.000845644 -0.00608879 0.00055 16.5041 0.0195561 -1.9072 
2944465 -0.0141565 -0.000767495 -0.00643469 0.00025 17.1396 -0.118307 -3.38845 
2935027 -0.00280824 -0.00109332 -0.00748176 0.00025 12.1351 -0.547765 -5.56112 
2946312 -0.000558706 -0.0153764 0.0903297 0.00035 -0.686972 -1.98618 10.2912 
2940413 -0.0339982 0.000902368 -0.00545238 0.00035 16.53 -0.103818 -1.58212 
2946965 -0.0325698 0.00109965 -0.00649326 0.00025 16.8188 0.0877587 -2.07285 
2944009 -0.0285284 -8.01234e-05 -0.00592653 0.00025 16.7152 -0.120867 -1.25482 
2952933 -0.0288466 0.000472471 -0.00510795 0.00025 16.4153 0.0787667 -1.13505 
2935046 -0.0284341 0.000323247 -0.0062268 0.00025 16.6544 -0.287649 -1.70103 
2947062 -0.0280148 2.29749e-06 -0.00628375 0.00025 16.6801 -0.100325 -1.70458 
2922840 -0.0281053 0.000625508 -0.00568725 0.00045 16.5144 -0.0894023 -1.81418 
2958886 -0.0266508 0.00103361 -0.0052388 0.00025 16.7326 0.272554 -1.83125 
2928779 -0.00902402 0.000701864 -0.00619909 0.00035 16.007 0.278473 -2.5423 
2938691 -0.00757549 0.00110638 -0.00625574 0.00025 15.6784 0.506604 -3.1421 
2919899 -0.00597744 0.00048295 -0.00621683 0.00045 15.1718 -0.0490006 -3.0395 
2955706 -0.00034892 0.0205486 0.0112938 0.00025 -0.247009 10.4131 5.51501 
2950836 -0.000625455 -0.0228124 0.0884211 0.00025 -0.878725 -2.83587 9.98447 
2930728 -0.000115673 -0.0610475 0.0981901 0.00025 -0.197496 -5.7412 8.33339 
2938268 -0.000367706 0.0613509 0.0962788 0.00025 -0.470393 5.18619 8.70812 
2957220 -0.000812227 -0.0199195 0.0854538 0.00025 -1.16772 -2.9866 10.3123 
2942147 -0.000666965 0.0566798 0.0919756 0.00025 -1.13928 5.58964 8.40388 
2937654 -0.000431912 0.0795846 0.0859452 0.00025 -0.721751 5.78333 5.95915 
2933873 -0.000412521 0.0609858 0.0936747 0.00025 -0.574344 4.56724 8.38389 
2954016 -0.00077738 0.0570764 0.0929936 0.00025 -1.0661 5.49967 8.37308 
2963284 -0.000418551 0.0482212 0.0413728 0.00025 -0.351792 7.89762 7.07376 
2961185 -0.00038475 -0.00967638 0.0446493 0.00025 -0.366446 -2.47855 10.6911 
2950131 -0.000153348 0.0230478 0.00637153 0.00025 0.103813 11.4744 2.42834 
2944251 -0.000788659 -0.0202843 0.0864733 0.00025 -1.08313 -2.85659 10.5296 
2937050 -0.000734952 -0.0187247 0.0826104 0.00025 -1.17871 -2.8074 10.4311 
2936823 -0.000218947 -0.0140007 0.0948199 0.00025 -0.248599 -2.15708 9.78766 
2927723 -0.000123306 0.0191787 0.0407971 0.00025 0.603022 5.11831 9.58296 
2943767 -0.000784804 0.0587865 0.0938316 0.00025 -1.0646 5.42509 8.69391 
2954080 -0.000300337 -0.0106707 0.0476351 0.00025 0.107554 -2.32152 10.4661 
2952057 -0.0280755 0.00410921 -0.0058682 0.00035 16.4772 -0.094111 -2.10626 
2946367 -0.0215986 0.00385661 -0.00558564 0.00025 16.5819 -0.106937 -1.81985 
2955685 -0.00895642 0.00335021 -0.00648743 0.00025 15.8824 0.280703 -2.53686 
2938775 -0.000563673 -0.0224875 0.0874287 0.00025 -0.833348 -3.03425 10.0754 
2943794 -0.000617347 0.0562439 0.0917357 0.00025 -0.805999 5.74059 8.14193 
2920924 -0.000974922 0.0572071 0.0906215 0.00025 -1.37007 5.73273 7.8646 
2937324 -0.000879088 0.055539 0.0897928 0.00025 -1.34108 5.32588 8.36668 
2934241 -0.00041939 0.0239352 0.0395745 0.00025 -0.387584 6.05139 9.21154 
2949518 -0.000580327 -0.0103282 0.0902511 0.00025 -0.319231 -2.32571 9.63963 
2954364 -0.000576069 -0.0192104 0.0823184 0.00025 -1.0784 -2.88305 10.5876 
2947178 -0.000536682 -0.0122159 0.0905564 0.00025 -0.118673 -2.47715 10.0599 
2921549 -0.000642254 0.0253468 0.0209421 0.00035 -0.444852 9.02042 6.98816 
2952785 -0.000258213 -0.021401 0.0322743 0.00025 -0.00910043 -6.32213 9.77525 
2941671 -0.000429951 -0.0210607 0.0819394 0.00025 -0.99546 -2.86225 10.5211 
2936460 9.29281e-06 -0.0483768 0.0822368 0.00025 0.614389 -6.09817 7.79861 
2956540 -0.000324227 0.0512431 0.08 0.00025 -0.228899 6.53661 8.25216 
2943277 -0.000132039 0.0101263 -0.00670111 0.00035 8.59142 6.19489 -4.70772 
2968369 -0.000867105 0.0173813 0.0224985 0.00025 -0.650197 7.18118 8.63673 
2943057 -0.000155726 0.0456957 -0.00642344 0.00025 0.506786 11.5294 -2.25072 
2940897 -0.000748736 -0.0234356 0.087998 0.00025 -1.00035 -2.40928 10.3864 
2966672 -0.00067109 -0.0436278 -0.00505153 0.00035 -0.025059 -12.1162 -1.82132 