ITEM: TIMESTEP
955890
ITEM: NUMBER OF ATOMS
32119
ITEM: BOX BOUNDS ff ff ff
-0.705 0.705
-0.1016 0.1016
-0.11 0.11
ITEM: ATOMS id x y z radius vx vy vz 
2946112 -0.122412 -0.0105674 0.00703662 0.00045 9.95811 0.704936 -0.548364 
2946175 -0.12042 -0.0105294 0.00691161 0.00035 10.2749 0.796624 -0.534076 
2952373 -0.123356 -0.0113711 0.00931351 0.00025 9.93629 0.740873 -0.863427 
2956118 -0.13742 -0.0123754 0.00982174 0.00025 8.3331 0.669862 -0.838754 
2949779 -0.139751 -0.00936385 0.0104802 0.00025 8.09053 0.374119 -0.546692 
2951877 -0.111522 0.00155001 0.0200121 0.00055 11.0818 -0.170903 -1.86554 
2946572 -0.000367959 0.0716548 -0.109713 0.00025 -0.317221 4.8034 -9.48088 
2944296 -0.000129443 0.0779452 -0.107958 0.00025 -0.0941559 5.30638 -8.85595 
2943516 -0.00295391 0.0968267 -0.108823 0.00025 -0.576753 7.51224 -8.84998 
2941485 -0.00331976 0.0731553 -0.108121 0.00025 -0.658579 5.97356 -10.2275 
2944345 -0.000339767 0.0811935 -0.107574 0.00025 -0.191545 5.82333 -8.96989 
2937665 -0.00281954 0.083178 -0.107217 0.00025 -0.596669 6.06802 -8.8843 
2938267 -0.00141159 0.0848338 -0.107499 0.00025 -0.310118 6.92278 -9.51192 
2923533 -0.000278031 0.0842692 -0.107455 0.00025 -0.129367 6.60348 -9.28336 
2935853 -0.00358942 -0.000572928 -0.108051 0.00025 -1.19379 0.710837 -11.3275 
2919402 -0.00337373 0.0691779 -0.107895 0.00025 -0.718056 5.61801 -10.1931 
2932257 -0.00716833 0.0787582 -0.106867 0.00025 -1.28472 6.66624 -9.97819 
2937719 -0.00705488 0.0825764 -0.107519 0.00025 -1.12496 7.04315 -9.91175 
2932534 -0.000717004 0.0842056 -0.107175 0.00025 -0.327499 6.64618 -9.43041 
2938215 -0.00149747 0.084434 -0.106383 0.00025 -0.552924 6.44555 -9.08621 
2939976 -0.00311921 -0.0207785 -0.107375 0.00025 -1.02971 -2.55088 -11.4415 
2940146 -0.00264562 -0.0172077 -0.106542 0.00025 -0.975342 -1.99543 -11.0924 
2932210 -0.00241553 0.0828093 -0.105469 0.00025 -0.519376 6.99658 -9.65429 
2927375 -0.000639515 0.0823041 -0.105461 0.00035 -0.22699 6.86398 -9.68704 
2949919 -0.0018841 0.083532 -0.104827 0.00025 -0.427685 6.16839 -8.70588 
2944421 -0.00168761 0.0845777 -0.105162 0.00025 -0.5537 6.70422 -9.24028 
2933233 -0.00115101 0.0846203 -0.105906 0.00035 -0.344841 6.7688 -9.21674 
2920844 -0.000606943 0.0849229 -0.105885 0.00025 -0.239842 6.64054 -9.18428 
2944025 -0.000695786 0.0856883 -0.105777 0.00025 -0.250167 6.85434 -8.98017 
2941532 -0.0045674 0.0888382 -0.106012 0.00025 -0.747397 7.65085 -9.62521 
2951281 -0.00794506 0.0783833 -0.104103 0.00025 -1.27793 6.50207 -9.53988 
2950991 -0.00181166 0.0880847 -0.104665 0.00025 -0.37343 7.53225 -9.43091 
2935023 -0.00284335 0.0878583 -0.104069 0.00025 -0.607429 6.64345 -8.62932 
2944005 -0.00124006 0.0888939 -0.104513 0.00025 -0.259548 7.5312 -9.36631 
2957270 -0.00148981 0.000640829 -0.104412 0.00025 -0.728822 0.814743 -11.0753 
2924373 -0.00250084 0.085836 -0.103109 0.00035 -0.580152 7.42676 -9.33912 
2931388 -0.00573427 0.0888272 -0.102199 0.00025 -0.971235 6.73679 -8.45753 
2943476 -0.00230809 0.0908218 -0.103515 0.00025 -0.418825 7.72206 -9.2408 
2941394 -0.00122452 0.0907361 -0.103298 0.00025 -0.264518 7.59645 -9.14648 
2934836 -0.000669707 -0.0977509 -0.101361 0.00025 -0.728962 -6.80556 -8.35254 
2945173 -0.00151366 -0.0219912 -0.103358 0.00025 -0.733319 -2.84132 -10.9042 
2952491 -0.00188947 -0.0166771 -0.103933 0.00025 -0.946351 -1.8093 -11.3791 
2945237 -0.00545781 0.0636069 -0.103031 0.00025 -1.33702 4.93587 -9.72289 
2943073 -0.00978594 0.0868642 -0.101705 0.00025 -1.54971 7.53317 -9.27693 
2931977 -0.0105069 0.0899947 -0.101816 0.00025 -1.64341 7.90927 -9.24587 
2934767 -0.00728181 0.0926366 -0.101529 0.00025 -1.15155 8.1337 -9.17149 
2926194 -0.000578876 0.0919945 -0.102317 0.00025 -0.169637 7.72376 -8.9556 
2938188 -0.000881682 0.0921921 -0.10176 0.00025 -0.330733 7.70085 -8.95364 
2938108 -0.00614013 0.076278 -0.101388 0.00025 -1.07346 6.30447 -9.29473 
2950864 -0.00334282 -0.0143588 -0.100704 0.00025 -1.0928 -1.50149 -10.469 
2942646 -0.00642718 0.074064 -0.0998006 0.00025 -1.13262 6.17996 -9.25521 
2944552 -0.00575364 0.0818875 -0.0999088 0.00025 -1.08797 7.10989 -9.18922 
2931880 -0.00101869 0.0894302 -0.0999666 0.00025 -0.433732 7.12906 -8.67095 
2933956 -0.000690392 0.095768 -0.099296 0.00025 -0.194009 8.25727 -8.75827 
2947800 -0.00183619 -0.0134645 -0.0999962 0.00025 -0.737959 -1.38835 -10.3799 
2951657 -0.00156499 -0.0108143 -0.0996604 0.00025 -0.71327 -0.854457 -10.4088 
2939020 -0.00636275 0.0798297 -0.0990039 0.00035 -1.23746 6.88041 -9.09663 
2941367 -0.00134906 0.0808581 -0.0991529 0.00025 -0.476418 6.82748 -9.04599 
2934539 -0.000999395 0.0866538 -0.0983242 0.00035 -0.388417 7.54527 -8.95724 
2951340 -0.00735982 0.0876037 -0.0985389 0.00025 -1.2777 7.67058 -8.95919 
2944095 -0.000821418 0.08786 -0.0977708 0.00025 -0.389919 7.26949 -8.45592 
2940549 -0.00653425 0.0895865 -0.0988809 0.00025 -1.08234 7.83087 -8.97279 
2925491 -0.00164972 -0.0239317 -0.0991372 0.00025 -0.576796 -2.90419 -10.8342 
2946604 -0.00584294 0.0771206 -0.0977929 0.00025 -1.15446 6.43469 -8.997 
2927350 -0.00127725 0.0806915 -0.097977 0.00035 -0.568902 7.14279 -9.14416 
2942802 -0.00805325 0.088117 -0.0970665 0.00025 -1.3527 7.69769 -8.8351 
2953709 -0.00138565 -0.0158586 -0.0975706 0.00025 -0.651814 -1.71995 -9.98034 
2932363 -0.000480594 -0.0131093 -0.0972029 0.00025 -0.380468 -1.21956 -10.1616 
2918506 -0.00520482 0.0863081 -0.0960554 0.00035 -1.10464 7.73591 -8.8869 
2943468 -0.0137192 0.0883211 -0.096231 0.00025 -2.16471 7.8272 -8.82962 
2929286 -0.00554117 0.0977443 -0.0963643 0.00025 -0.915648 8.64271 -8.58081 
2912656 -0.00276116 -0.0978572 -0.0943 0.00045 -0.132262 -8.65014 -8.48495 
2921604 -0.00447728 0.0868574 -0.0933959 0.00035 -0.959763 7.83301 -8.70802 
2946961 -0.0040922 0.0993378 -0.0937521 0.00025 -0.735044 8.83997 -8.28637 
2938969 -0.00195871 0.00864901 -0.0959788 0.00035 -0.0377406 1.30656 -12.3742 
2925845 -0.00183972 0.0840551 -0.0921761 0.00035 -0.643646 7.48572 -8.46071 
2933036 -0.00535688 0.00938314 -0.095369 0.00045 -0.636369 1.3018 -12.2698 
2924266 -0.00392159 0.0104403 -0.0944349 0.00045 -0.311544 1.42288 -12.2586 
2942092 -0.003021 0.0731694 -0.0911501 0.00025 -0.689229 6.08246 -8.21716 
2923070 -0.00655904 0.0891029 -0.0917657 0.00035 -1.33714 8.06434 -8.49411 
2945850 -0.0130342 0.0908726 -0.0917929 0.00025 -2.02807 8.05059 -8.22533 
2943139 -0.0083736 0.0984588 -0.0908648 0.00025 -1.41967 8.92518 -8.06652 
2950505 -0.00109364 0.00900866 -0.0934404 0.00035 0.192919 1.36769 -12.228 
2930126 -0.00225642 0.0136444 -0.0932124 0.00045 -0.0678384 1.84363 -12.1946 
2925964 -0.00801349 0.0924009 -0.0903974 0.00035 -1.47333 8.03178 -7.94263 
2921362 -0.00614193 -0.00144661 -0.0926259 0.00045 -0.920799 -0.0533906 -12.0827 
2921381 -0.00206168 0.00720257 -0.0924834 0.00045 -0.0197627 1.02011 -12.2387 
2930117 -0.00518859 0.0235978 -0.0919162 0.00045 -0.716394 2.99136 -11.9103 
2941734 -0.00116506 0.00650798 -0.0913655 0.00045 0.178026 1.09136 -12.2603 
2930290 -0.00180667 0.0855118 -0.0881812 0.00035 -0.632773 7.71974 -8.09007 
2927506 -0.00875651 0.0947626 -0.0871202 0.00025 -1.45496 8.53145 -7.61732 
2924287 -0.00082887 -0.0116929 -0.0903406 0.00045 -0.0131208 -1.56913 -12.3057 
2935883 -0.00595382 0.000267874 -0.0905834 0.00055 -0.726104 0.180246 -12.0023 
2925855 -0.00144585 0.100963 -0.086734 0.00035 -0.445268 9.21889 -7.5499 
2959045 -0.000857755 -0.0184557 -0.0885218 0.00025 -0.0466125 -2.56451 -11.6454 
2944674 -0.00170735 0.022378 -0.0888092 0.00035 0.0531789 2.84982 -11.5921 
2941995 -0.00178199 0.0724615 -0.0860759 0.00025 -0.559551 6.25313 -8.18107 
2948012 -0.00699323 0.0854187 -0.0858392 0.00025 -1.33088 7.74872 -7.84897 
2949924 -0.0127119 0.0921074 -0.0853537 0.00025 -2.06864 8.24325 -7.5292 
2943163 -0.110335 -0.00149809 0.0197099 0.00045 10.8723 -0.334192 -1.99048 
2941814 -0.0015996 0.0282743 -0.0875037 0.00035 0.0217834 3.67361 -11.6033 
2915525 -0.00662597 0.000332259 -0.0857203 0.00055 -0.834843 0.185781 -11.5212 
2936996 -0.00227848 0.0835059 -0.0815311 0.00025 -0.693156 7.64391 -7.47321 
2921358 -0.00146055 0.0309517 -0.0839512 0.00045 0.118828 4.07214 -11.1835 
2927394 -0.000461798 0.085369 -0.0813409 0.00035 -0.444718 8.12358 -7.64627 
2931519 -0.000242772 0.0318072 -0.0817017 0.00055 0.292034 4.44461 -11.1042 
2948422 -0.00175331 0.0869513 -0.0783762 0.00025 -0.525435 8.1513 -6.97988 
2932136 -0.00373557 0.0897833 -0.0764146 0.00025 -0.93761 8.43794 -6.72998 
2948023 -0.00129826 0.0623643 -0.0775783 0.00025 -0.850816 6.2311 -8.74777 
2919897 -0.00248769 0.0696759 -0.0789165 0.00045 -0.306453 8.53798 -9.96075 
2949653 -0.000378606 0.0711485 -0.0752121 0.00025 -0.300817 7.34223 -8.04404 
2944884 -0.0010083 0.0678395 -0.074372 0.00025 -0.704231 7.22541 -8.34361 
2944271 -0.00127064 0.0696208 -0.0749728 0.00025 -0.525541 7.18036 -7.95999 
2941968 -0.00102768 0.0708959 -0.0753888 0.00035 -0.0365046 8.71783 -9.49516 
2951528 -0.000845847 -0.010526 -0.0756304 0.00025 -0.947663 -1.27511 -10.1611 
2939013 -0.000545433 0.0718892 -0.0747971 0.00035 0.0544091 8.97227 -9.60273 
2935978 -9.4968e-05 0.0667572 -0.0736289 0.00035 -0.0489125 8.00403 -8.95253 
2942609 -0.000810637 0.0706725 -0.072808 0.00025 -0.647234 7.81171 -8.17157 
2959209 -0.00194509 0.0603982 -0.0719423 0.00045 -0.174694 7.73584 -9.47197 
2921345 -0.00863065 0.064734 -0.0721946 0.00055 -1.32726 8.23167 -9.4203 
2953366 -0.00449669 0.0629369 -0.071219 0.00045 -0.559694 8.14647 -9.37485 
2948075 -0.00015868 0.0623493 -0.0709978 0.00025 0.278851 7.94913 -9.24032 
2950688 -0.00165225 0.0634079 -0.0702556 0.00035 -0.116747 7.89833 -9.05464 
2933033 -0.00606026 0.0667064 -0.0697342 0.00045 -0.944661 8.50432 -9.08413 
2921377 -0.000327987 0.0756128 -0.0690813 0.00045 0.0263222 9.16167 -8.41495 
2934422 -0.00303154 0.0648501 -0.0691606 0.00055 -0.336024 8.46551 -9.28987 
2937376 -0.00287544 0.0740565 -0.0688871 0.00045 -0.384385 9.51224 -8.90182 
2943690 -0.00221197 -0.0912757 -0.0654775 0.00025 -1.73731 -9.19824 -6.31045 
2930897 -0.00221304 0.0962998 -0.0646567 0.00025 -1.72174 7.71537 -6.60038 
2921376 -0.00216803 0.0686955 -0.0642067 0.00045 -0.221071 8.96435 -8.48358 
2939567 -0.00137081 0.0938771 -0.0621617 0.00025 -1.35333 7.01396 -5.99784 
2947247 -0.00195264 0.0603626 -0.0613119 0.00025 -0.768652 8.03566 -8.03205 
2922787 -0.00148915 0.0661702 -0.0613348 0.00055 -0.181593 9.02138 -8.4146 
2939492 -0.00029414 0.066772 -0.0599633 0.00025 -0.29346 9.42156 -7.96855 
2922014 -0.00202064 0.0531046 -0.0584141 0.00025 -1.37914 7.06269 -8.58119 
2932965 -0.000186311 0.0823361 -0.0531014 0.00055 0.715083 10.1569 -6.5728 
2915520 -0.00210032 0.0884109 -0.0531339 0.00055 -0.0719643 10.5529 -6.41718 
2927818 -0.00142917 0.053061 -0.0524128 0.00025 -1.1192 7.17506 -7.17877 
2924407 -8.17377e-05 0.0280463 -0.0508179 0.00035 0.893613 5.80055 -11.0917 
2932981 -0.00113505 0.00326309 -0.0500591 0.00055 -0.175976 1.00391 -12.5214 
2946864 -0.00216737 0.0476171 -0.0445169 0.00025 -2.20803 8.35059 -7.49867 
2945153 -0.00022313 -0.101731 -0.0353639 0.00025 0.247759 -10.9112 -4.06697 
2935878 -0.000391946 0.0340933 -0.038968 0.00055 -0.145625 7.93208 -9.38238 
2925648 -0.000146464 0.0751049 -0.0348009 0.00025 0.653985 10.7859 -4.61966 
2947529 1.17491e-06 0.0377103 -0.038112 0.00045 0.268442 8.52402 -9.12741 
2945578 -0.000500164 0.0715881 -0.0332844 0.00025 -0.153761 10.2111 -4.58111 
2956231 -0.000175997 0.0346702 -0.0324428 0.00055 0.0396718 8.91182 -8.5738 
2952006 -3.60247e-05 0.045427 -0.0290101 0.00035 0.252775 10.1755 -6.61128 
2957174 -0.000178967 0.074412 -0.0257763 0.00025 0.256577 11.0547 -3.45858 
2918447 -0.00102719 -0.0480612 -0.0267482 0.00045 0.121729 -10.4325 -6.11491 
2950580 -0.000256578 0.0473898 -0.0264148 0.00035 0.501965 10.6181 -6.11307 
2918437 -0.000522748 0.0216452 -0.0275254 0.00055 -0.366465 7.60801 -10.1576 
2938479 -0.00200979 -0.0745968 -0.0178317 0.00025 -2.0648 -10.9275 -3.18537 
2961030 -7.38032e-06 0.0392659 -0.0210487 0.00025 0.321785 10.644 -5.99896 
2938798 -0.00179566 -0.0859964 -0.0165883 0.00045 -0.134441 -11.5165 -2.30988 
2933906 -0.00135491 -0.0685465 -0.0171074 0.00025 -1.41129 -9.45069 -3.21828 
2924261 -0.000117886 -0.0415044 -0.01878 0.00045 0.210402 -11.0269 -5.53047 
2937661 -0.000196189 0.0194835 -0.0229016 0.00025 0.07716 7.40833 -9.89255 
2956189 -0.00155555 -0.0684424 -0.0165837 0.00025 -1.37198 -9.18077 -3.16902 
2933230 -0.000249971 0.0212099 -0.021594 0.00035 0.001621 8.89433 -9.73487 
2951903 -0.00125931 0.0512448 -0.0171202 0.00045 0.272828 10.8557 -3.87526 
2954821 -0.000481809 0.0512643 -0.0155214 0.00045 0.639314 11.2872 -3.39631 
2924258 -7.74559e-05 0.0567618 -0.0146084 0.00045 0.438045 11.2996 -2.73208 
2943199 -0.000782426 0.0577665 -0.0150075 0.00045 0.485247 11.4235 -3.08723 
2923897 -0.00164481 -0.0726275 -0.0132104 0.00025 -1.57871 -10.2314 -2.30433 
2940300 -7.21111e-05 -0.0534376 -0.0142185 0.00045 0.670068 -11.7482 -3.46925 
2944648 -0.000386719 0.0262081 -0.0182253 0.00045 -0.116571 10.672 -7.44545 
2967464 -0.00182888 -0.0766085 -0.012499 0.00025 -1.71867 -11.4006 -2.26061 
2968388 -0.000135083 -0.0282034 -0.0154643 0.00025 0.165875 -10.3718 -6.30487 
2952067 -0.111922 0.0104899 0.00949968 0.00035 11.0165 -0.905353 -1.06225 
2943160 -0.110749 0.0100343 0.00912112 0.00045 11.3365 -0.793157 -1.10175 
2942762 -0.000936723 0.0588634 0.095288 0.00025 -1.07809 5.7539 8.53491 
2950528 -6.27762e-05 0.0521421 -0.0125275 0.00035 1.18544 11.2359 -2.78552 
2944653 -0.000836899 0.0536158 -0.01301 0.00045 0.505133 11.3161 -2.88038 
2935924 -0.000131848 -0.0500968 -0.0109204 0.00045 0.300713 -11.5835 -2.78071 
2934463 -0.10876 0.0100679 0.0107438 0.00045 11.664 -0.915359 -1.06313 
2947243 -0.000805663 -0.00233751 -0.0125839 0.00025 8.63087 -1.17411 -8.4334 
2929756 -0.000683912 -0.000922987 -0.0126511 0.00025 8.65357 -0.989071 -8.48424 
2958099 -0.000140828 0.000431937 -0.0128785 0.00025 7.94623 0.895848 -8.67812 
2934689 -0.000138134 0.00128518 -0.0126428 0.00035 8.19164 1.0713 -8.55815 
2935035 -0.00019937 0.0650149 0.100732 0.00025 -0.326396 5.84438 7.56136 
2940369 -0.000247728 -0.0224325 0.096279 0.00035 -0.249706 -2.83243 9.70962 
2923283 -0.000880079 -0.0226509 0.0924113 0.00025 -0.362664 -3.10476 9.52403 
2931106 -0.00035972 0.0392103 0.0927319 0.00025 -0.541383 3.8668 9.33455 
2949914 -8.01698e-05 0.000249831 0.0925264 0.00025 0.444766 -1.11444 9.80138 
2940455 -0.108985 -0.0100769 0.00767153 0.00035 11.5297 0.849551 -0.853088 
2937328 -0.109041 0.0100779 0.00971911 0.00055 11.3993 -0.933972 -1.01196 
2953617 -0.000679741 -0.0239686 0.0890341 0.00025 -0.972672 -2.63603 10.342 
2931161 -0.000121613 0.088506 0.0816712 0.00025 -0.196842 7.35378 5.69467 
2940728 -0.000135391 0.0482437 0.0797444 0.00025 0.0261288 6.2987 7.88272 
2951793 -0.000924951 -0.045891 0.0836234 0.00025 -0.94213 -6.82817 8.47011 
2920248 -0.000430497 0.0221985 -0.014188 0.00025 -0.114556 9.4329 -6.49876 
2959862 -2.50305e-05 0.0520005 -0.0107831 0.00025 0.684411 10.7837 -2.57347 
2942644 -0.00036295 -0.0376101 0.0748465 0.00025 -0.942378 -5.99603 8.84016 
2937335 -0.108325 -6.54338e-05 -0.00013602 0.00055 11.8682 0.202247 -0.412636 
2946135 -0.108498 -0.000915606 -0.000668961 0.00035 11.7618 0.0455518 -0.0696921 
2947467 -0.110905 -0.009968 0.00666355 0.00025 11.7758 0.783709 -0.507643 
2934418 -0.113124 -0.0103768 0.0093914 0.00055 10.646 0.822164 -0.779585 
2954567 -6.32287e-05 -0.0199115 0.0746083 0.00025 0.622143 -3.25722 9.41938 
2956718 -0.000346905 -0.0161718 0.0718091 0.00025 -0.610577 -3.61181 9.93143 
2949693 -0.00679082 -0.00217345 -0.00887925 0.00025 15.4612 -0.0565789 -2.74943 
2954390 -0.000289836 -0.0117572 0.0671744 0.00025 -0.296146 -2.52097 9.84751 
2935127 -0.00606053 0.000149235 -0.00905206 0.00025 14.6394 0.204121 -3.05032 
2919896 -0.000897964 0.00117219 -0.0112619 0.00045 9.5213 0.874699 -7.3292 
2940553 -0.000426208 0.000639878 -0.0124009 0.00025 7.62119 1.09659 -8.3985 
2952332 -7.54757e-05 0.000752198 -0.0118969 0.00025 8.44347 0.523008 -8.54055 
2925540 -0.000868343 0.0581982 0.0944432 0.00025 -1.08998 5.40772 8.63548 
2920000 -0.00123164 0.00198611 -0.0110587 0.00035 8.35642 1.14401 -7.24721 
2946164 -0.000171077 0.00186209 -0.0112168 0.00035 8.87756 0.642985 -8.1244 
2939780 -0.000337519 0.0775093 0.0623599 0.00025 0.00396534 6.89328 5.40758 
2969983 -0.000391912 -0.0078095 0.045267 0.00025 -0.318886 -2.0907 10.8332 
2924410 -0.00058006 0.0496192 -0.0104199 0.00035 0.809142 11.185 -3.00562 
2957607 -5.68441e-05 0.0492254 -0.010542 0.00025 1.19731 10.7585 -2.77853 
2920045 -0.000357741 -0.0526084 -0.00803632 0.00035 0.753065 -11.8919 -2.28202 
2949864 -0.000164073 -0.0913894 0.0383101 0.00025 0.127117 -9.22955 4.23923 
2950474 -0.0013275 -0.0476223 -0.00900839 0.00045 -0.262477 -11.8989 -2.43144 
2960468 -0.000231368 -0.044936 -0.00834282 0.00025 0.76508 -11.6009 -2.44113 
2922799 -0.000455233 -0.0425783 -0.0094906 0.00055 -0.126547 -11.9129 -2.84681 
2940234 -0.109609 0.00986075 0.00880762 0.00055 11.4174 -1.10791 -0.968813 
2952239 -0.0071462 -0.00279902 -0.00899576 0.00025 15.9834 -0.137587 -2.54907 
2950216 -0.00210966 -0.00388801 -0.00922587 0.00025 10.1914 -2.69224 -6.49213 
2920819 -0.000279597 -0.0166643 0.0389117 0.00025 -0.0638218 -4.69954 10.2074 
2952920 -0.00707788 -0.00198987 -0.00851485 0.00025 15.3635 -0.415211 -3.59946 
2949262 -0.000192086 -0.0238641 0.0948105 0.00025 0.492546 -3.02814 8.70601 
2947088 -0.000170495 -0.000531332 -0.0108331 0.00025 8.16716 -0.806836 -7.97419 
2935404 -0.000542534 0.000994782 -0.0106944 0.00025 9.41153 0.810696 -7.23676 
2928813 -0.0063915 0.0012437 -0.00854483 0.00035 15.1663 0.356888 -2.98616 
2955046 -0.000393231 0.00253691 -0.0100165 0.00035 9.19459 0.872931 -7.03493 
2940891 -0.000422357 -0.0178788 0.0937627 0.00025 -0.250323 -2.55454 10.1103 
2938553 -0.000193941 0.0189943 0.0898402 0.00025 -0.232557 2.75411 10.3052 
2950554 -0.000238437 0.0485463 -0.00954799 0.00035 0.509324 11.3398 -2.71588 
2936049 -0.000711961 0.0489267 -0.00920376 0.00035 0.714479 11.457 -2.54788 
2952334 -0.109504 -0.00797174 0.00532302 0.00025 11.7363 0.772147 -0.608446 
2938950 -0.000676354 -0.0203054 0.0841928 0.00035 -1.01171 -3.09231 10.4594 
2939723 -0.000646903 -0.0447223 0.0763329 0.00025 -0.687997 -5.59882 9.03737 
2927403 -6.66918e-05 -0.0512112 -0.00772073 0.00035 1.04608 -11.7725 -2.32358 
2940021 -0.000777518 -0.0426056 0.0742183 0.00025 -0.917312 -5.62776 8.83114 
2970094 -0.000138951 -0.0402008 -0.00698761 0.00025 -0.0513599 -10.9917 -2.26728 
2972187 -0.000111315 -0.0410476 -0.00823003 0.00025 0.112955 -11.2581 -2.63924 
2933640 -0.000165744 -0.039805 -0.00768944 0.00025 0.491045 -11.0847 -2.47412 
2935668 -0.00019758 -0.0266069 -0.00886803 0.00025 0.344823 -10.5253 -4.23881 
2964250 -0.000172133 0.0335606 0.0302 0.00025 0.181912 8.52399 7.39864 
2933659 -0.000428065 0.0361312 0.0253909 0.00025 0.154182 9.59948 6.68924 
2931238 -0.000675964 -0.0421598 0.0726858 0.00025 -0.671759 -5.37135 8.92597 
2941110 -0.020165 -0.00240891 -0.00754139 0.00025 16.337 0.319959 -1.65996 
2931511 -0.0198555 -0.00251552 -0.00681421 0.00055 16.3326 0.107194 -1.69809 
2956033 -0.0172248 -0.00305664 -0.00625058 0.00025 16.6147 -0.0817992 -1.32882 
2952297 -0.0197822 -0.00150701 -0.00705416 0.00025 16.5894 0.0813859 -1.80995 
2952338 -0.018782 -0.00201344 -0.00751759 0.00025 16.7009 -0.00353985 -2.23201 
2952984 -0.018484 -0.00157307 -0.00695466 0.00025 16.7855 -0.000590814 -2.03003 
2941498 -0.018219 -0.00116356 -0.0071161 0.00025 16.8463 0.0945592 -1.80908 
2920633 -0.0142507 -0.00190489 -0.007774 0.00025 16.6911 -0.0633255 -2.59141 
2934541 -0.0136111 -0.00171046 -0.00794335 0.00035 16.6563 -0.166821 -3.10006 
2928882 -0.00265546 -0.00263074 -0.00815174 0.00035 12.0946 -1.00322 -5.1212 
2925839 -0.00216393 -0.00283749 -0.00770841 0.00035 11.9562 -1.76574 -5.19809 
2951919 -0.000754258 -0.00209214 -0.00900882 0.00045 10.9156 -0.911166 -6.78105 
2925748 -0.0211011 -0.00067463 -0.0069654 0.00045 16.3942 0.0454751 -1.37709 
2925707 -0.00920454 -0.000737427 -0.00589806 0.00055 15.9104 -0.108539 -1.57905 
2925753 -0.00544803 -0.00087197 -0.00735292 0.00045 14.8356 -0.330722 -3.23942 
2929326 -0.00364459 -0.00040958 -0.00642915 0.00025 12.7794 -0.643779 -3.51781 
2931746 -0.00109837 -0.00115705 -0.00900581 0.00035 10.5384 -0.857083 -6.73473 
2936995 -2.10446e-05 -0.0625885 0.102263 0.00025 -0.0300101 -6.09147 8.41404 
2945999 -0.000558922 0.0616696 0.0993649 0.00025 -0.885921 5.31 7.97173 
2955774 -0.0251684 0.000918992 -0.00658163 0.00025 16.5015 0.109384 -1.86205 
2948076 -0.000691072 0.0272761 0.0247078 0.00025 -0.579198 8.62813 7.48094 
2950364 -0.0320417 0.00137417 -0.00651779 0.00025 16.5494 -0.0170638 -1.21948 
2928820 -0.0175967 0.00160655 -0.00702761 0.00035 16.8365 0.386215 -1.48923 
2937399 -0.00820185 0.00133209 -0.007547 0.00045 15.6247 0.32393 -2.77149 
2925771 -0.000588668 0.0146583 0.0149148 0.00035 -0.51777 8.03353 7.57693 
2949454 -0.000958832 0.00432354 0.0281211 0.00025 -1.16541 2.29802 11.8845 
2930054 -5.93861e-05 0.0114025 0.0638573 0.00055 -0.0646813 1.96851 10.8393 
2951306 -0.000401869 0.0275367 0.0228129 0.00025 -0.311791 9.14367 7.25929 
2946208 -0.113006 -0.00965277 0.00563634 0.00035 11.158 0.764798 -0.519712 
2920644 -0.000272701 0.0214382 0.100501 0.00025 -0.388969 2.33764 9.79556 
2948018 -0.000598985 -0.0842813 0.0558477 0.00025 -0.654503 -8.55954 4.02513 
2921401 -0.00174184 0.0482256 -0.00724853 0.00045 0.445478 10.9644 -2.13998 
2923340 -0.00017875 0.0782453 0.108766 0.00025 -0.227796 5.499 8.43705 
2956307 -0.000186213 -0.0470607 -0.00640359 0.00035 0.418851 -11.983 -1.92268 
2932967 -0.000292158 -0.0461741 -0.00638634 0.00055 -0.0877525 -11.9757 -1.86587 
2965176 -1.38947e-05 -0.0441867 -0.00619336 0.00035 0.364347 -11.5667 -1.98463 
2919131 -0.000127053 -0.0416771 -0.00653602 0.00025 0.122144 -11.7991 -2.17154 
2940243 -0.112497 -0.00911879 0.00512295 0.00055 11.0572 0.708815 -0.69124 
2927682 -0.000428597 0.0316964 0.027007 0.00025 -0.298868 8.8411 7.26765 
2927207 -0.0013817 -0.009788 0.0224813 0.00045 -1.65066 -4.61183 9.469 
2921917 -0.000666591 0.058816 0.0947307 0.00025 -0.964837 5.56461 8.46544 
2956049 -0.000574247 0.00458463 0.0223265 0.00025 -1.25582 2.27253 11.1106 
2959125 -0.0141427 -0.00596054 -0.00593509 0.00025 16.6399 -0.855076 -2.29928 
2933762 -0.000766801 0.058066 0.0939594 0.00025 -1.1081 5.38601 8.59866 
2918841 -0.000887146 0.0580253 0.0927149 0.00025 -1.28989 5.26215 8.4847 
2945420 -0.000165343 0.0506631 0.0459491 0.00025 -0.0949921 8.01403 6.92852 
2935056 -0.0174465 -0.00383189 -0.00617294 0.00025 16.6324 -0.00926786 -1.45293 
2931590 -0.0145211 -0.00435886 -0.00670335 0.00035 16.5945 -0.0325142 -2.61208 
2952352 -0.017602 -0.00286038 -0.00595269 0.00025 16.5891 -0.165796 -1.47018 
2958318 -0.0184353 -0.00301871 -0.00547239 0.00025 16.7232 -0.0781722 -1.64029 
2934531 -0.0171539 -0.00258556 -0.0055486 0.00035 16.4966 -0.0743259 -1.25855 
2947494 -0.0167266 -0.00261603 -0.00512862 0.00025 16.6133 -0.0738443 -1.36591 
2944343 -0.0154155 -0.00287099 -0.0051336 0.00025 16.6259 0.226469 -1.43432 
2956110 -0.010485 -0.00215645 -0.00497135 0.00025 16.4195 0.237362 -0.538693 
2944273 -0.00660235 -0.00418378 -0.00654917 0.00025 15.4781 -1.33376 -3.63476 
2949179 -0.0266793 -0.00169263 -0.00538096 0.00035 16.4418 -0.0436498 -1.67884 
2949576 -0.0216904 -0.00194656 -0.00551359 0.00025 16.6579 0.0954687 -1.57872 
2943896 -0.019233 -0.00184781 -0.00657909 0.00025 16.6767 0.0754185 -2.06402 
2934889 -0.0179244 -0.00180523 -0.00576969 0.00025 16.7024 -0.0222052 -1.57487 
2925887 -0.0175269 -0.00160199 -0.00532173 0.00035 16.6346 0.00281369 -1.38408 
2952448 -0.0168565 -0.00180169 -0.00528762 0.00025 16.6112 0.0771906 -1.05364 
2952512 -0.00797366 -0.00146448 -0.00669329 0.00025 15.4675 -0.178182 -3.15916 
2950044 -0.0041767 -0.00147437 -0.00491549 0.00025 12.9171 -0.547516 -1.90008 
2922829 -0.00394073 -0.00165122 -0.00554886 0.00045 13.4712 -0.649004 -1.70132 
2917166 -0.00345907 -0.0022402 -0.00580417 0.00035 12.4997 -0.633804 -2.32099 
2935400 -0.000414881 0.0261755 0.0163396 0.00025 -0.449313 10.3316 6.25913 
2929399 -0.000277331 0.0629102 0.0997805 0.00025 -0.499783 5.16303 7.36569 
2956188 -0.0375732 -0.000190396 -0.00536457 0.00025 16.6733 -0.144109 -1.53149 
2943347 -0.0329982 -0.000271292 -0.00554793 0.00035 16.5846 -0.0188479 -1.22548 
2949428 -0.0310477 -0.000376763 -0.00524066 0.00025 16.6739 -0.243264 -1.6413 
2937358 -0.0279697 -0.000684579 -0.00537448 0.00045 16.4826 0.22857 -0.954162 
2956100 -0.0252072 -0.000914455 -0.00522172 0.00025 16.4011 -0.0128666 -1.35884 
2950280 -0.0202332 -0.000782138 -0.00641356 0.00025 16.9062 0.177863 -2.04198 
2925694 -0.018971 -0.000844431 -0.00620539 0.00055 16.4905 0.0209683 -1.96762 
2944465 -0.0131271 -0.000774763 -0.00663429 0.00025 17.1522 -0.128116 -3.31623 
2935027 -0.00211521 -0.00113022 -0.0078376 0.00025 11.0202 -0.6619 -6.29896 
2946312 -0.00059984 -0.0154956 0.0909472 0.00035 -0.684034 -1.98703 10.2926 
2940413 -0.0330064 0.000895788 -0.00554612 0.00035 16.5369 -0.115211 -1.49998 
2946965 -0.0315603 0.00110531 -0.0066145 0.00025 16.8315 0.102886 -2.00098 
2944009 -0.0275251 -8.70837e-05 -0.00600088 0.00025 16.7374 -0.112106 -1.24007 
2952933 -0.0278613 0.000477758 -0.0051739 0.00025 16.4292 0.0934097 -1.07895 
2935046 -0.0274359 0.000305376 -0.00632654 0.00025 16.6144 -0.313728 -1.64854 
2947062 -0.0270136 -3.4362e-06 -0.00638491 0.00025 16.7029 -0.0917702 -1.68376 
2922840 -0.0271135 0.000620024 -0.00579345 0.00045 16.5396 -0.0943682 -1.73954 
2958886 -0.0256487 0.00104618 -0.00534918 0.00025 16.6848 0.174978 -1.83415 
2928779 -0.00807168 0.000720657 -0.00635857 0.00035 15.7371 0.353542 -2.79881 
2938691 -0.00664264 0.00113841 -0.00645019 0.00025 15.4169 0.567249 -3.36547 
2919899 -0.00508474 0.000483676 -0.00641098 0.00045 14.613 0.0519917 -3.43896 
2955706 -0.000362371 0.0211727 0.0116243 0.00025 -0.203384 10.3905 5.50366 
2950836 -0.000677759 -0.0229821 0.0890202 0.00025 -0.863999 -2.82299 9.98448 
2930728 -0.000127523 -0.061392 0.0986901 0.00025 -0.197496 -5.7412 8.33339 
2938268 -0.00039593 0.061662 0.0968013 0.00025 -0.470393 5.18619 8.70812 
2957220 -0.00088122 -0.0200976 0.0860721 0.00025 -1.13238 -2.95384 10.297 
2942147 -0.000735427 0.0570155 0.0924798 0.00025 -1.14122 5.59504 8.40285 
2937654 -0.000475217 0.0799316 0.0863027 0.00025 -0.721751 5.78333 5.95915 
2933873 -0.000446982 0.0612598 0.0941777 0.00025 -0.574344 4.56724 8.38389 
2954016 -0.000841346 0.0574064 0.093496 0.00025 -1.0661 5.49967 8.37308 
2963284 -0.000437986 0.0486936 0.0417954 0.00025 -0.296516 7.84862 7.01312 
2961185 -0.000406356 -0.00982493 0.0452903 0.00025 -0.35077 -2.4713 10.6768 
2950131 -0.000145713 0.0237358 0.00651689 0.00025 0.148918 11.4599 2.41727 
2944251 -0.000852692 -0.0204548 0.0871044 0.00025 -1.0516 -2.82915 10.5071 
2937050 -0.000804627 -0.0188926 0.0832358 0.00025 -1.14397 -2.78545 10.4202 
2936823 -0.000233865 -0.0141301 0.0954068 0.00025 -0.247813 -2.15789 9.78819 
2927723 -8.50006e-05 0.0194865 0.0413714 0.00025 0.671745 5.14326 9.5621 
2943767 -0.00084868 0.059112 0.0943532 0.00025 -1.0646 5.42509 8.69391 
2954080 -0.000293461 -0.0108096 0.048263 0.00025 0.120761 -2.30861 10.4625 
2952057 -0.0270865 0.00410289 -0.00599192 0.00035 16.4894 -0.114449 -2.02519 
2946367 -0.0206036 0.00385041 -0.00569646 0.00025 16.5807 -0.098812 -1.87964 
2955685 -0.00801287 0.00337099 -0.00664568 0.00025 15.5733 0.42124 -2.76591 
2938775 -0.000613228 -0.0226689 0.0880331 0.00025 -0.817754 -3.01337 10.0721 
2943794 -0.000665688 0.0565884 0.0922243 0.00025 -0.805688 5.74054 8.1424 
2920924 -0.00105713 0.057551 0.0910934 0.00025 -1.37007 5.73273 7.8646 
2937324 -0.000959317 0.055859 0.0902955 0.00025 -1.33519 5.35354 8.40341 
2934241 -0.000440284 0.0242981 0.0401272 0.00025 -0.306138 6.04615 9.21098 
2949518 -0.000593458 -0.010468 0.0908292 0.00025 -0.12027 -2.3295 9.63418 
2954364 -0.00063996 -0.0193825 0.0829538 0.00025 -1.0492 -2.85197 10.5903 
2947178 -0.000543506 -0.0123643 0.0911598 0.00025 -0.114222 -2.4708 10.0567 
2921549 -0.000668355 0.0258877 0.0213613 0.00035 -0.423731 9.01098 6.98553 
2952785 -0.000256489 -0.0217797 0.0328609 0.00025 0.0667162 -6.30054 9.77593 
2941671 -0.000489325 -0.0212314 0.0825717 0.00025 -0.98212 -2.82996 10.5594 
2956540 -0.000335524 0.0516338 0.0804946 0.00025 -0.142027 6.48519 8.23683 
2968369 -0.000905295 0.0178119 0.0230163 0.00025 -0.622192 7.17288 8.62258 
2943057 -0.000123854 0.0463871 -0.00655862 0.00025 0.55306 11.5199 -2.25519 
2940897 -0.000808207 -0.0235801 0.0886209 0.00025 -0.981284 -2.40667 10.3752 
2966672 -0.000672534 -0.0443547 -0.0051608 0.00035 -0.0230368 -12.1155 -1.82103 
2919963 -0.000512248 -0.029523 -0.00530593 0.00035 -0.105202 -11.549 -2.33802 
2943473 -0.000433343 -0.0829671 0.0429522 0.00025 -0.353746 -10.0553 4.24245 
2945472 -0.000133393 -0.0218041 0.0932959 0.00025 0.0780892 -3.13822 9.48959 
2927426 -0.000189648 0.060668 0.0964373 0.00035 -0.474924 5.40968 7.92454 
2946249 -0.000365245 -0.0123261 0.0849427 0.00035 -0.840557 -1.59522 10.5183 
2935890 -0.000694487 0.0285046 0.00467423 0.00045 -0.834219 12.0109 1.62723 
2954303 -0.000707357 -0.0201035 0.087935 0.00025 -0.819295 -2.68245 10.2318 
2960422 -0.000462192 -0.0418661 0.0814271 0.00025 -0.898419 -5.91593 8.97584 
2935839 -0.0163339 -0.00707303 -0.00478818 0.00025 16.7136 0.0431725 -1.67239 
2944109 -0.000537615 -0.00974726 -0.00592455 0.00025 8.13999 -6.28656 -4.68021 
2945656 -0.000743635 -0.0444533 0.0796207 0.00025 -0.570834 -6.10718 8.38776 
2954720 -0.000150645 -0.0624482 0.0741898 0.00025 -0.211638 -6.26779 8.18915 
2935772 -0.000588287 -0.0435772 0.0789177 0.00025 -0.628625 -6.08188 8.53769 
2948926 -0.000365742 0.0902086 0.0769861 0.00025 -0.489857 7.17753 6.57194 
2928691 9.75501e-05 -0.00835347 -0.00599308 0.00035 7.16175 -5.40682 -4.81064 
2931594 -0.000393782 0.0550622 0.0748448 0.00035 -0.420439 5.47391 8.03545 
2951315 -0.000650384 -0.0464728 0.0785464 0.00025 -0.202569 -5.25584 8.63761 
2927763 -0.000611116 0.0161759 0.0303463 0.00025 -0.505327 5.76438 9.83169 